LAMMPS data file via write_data, version 30 Jul 2021, timestep = 15000000

864 atoms
2 atom types
576 bonds
1 bond types
288 angles
1 angle types

0.08217716877929959 18.125395231221 xlo xhi
0.10527315291123607 23.5239046470967 ylo yhi
0.15702666441441693 22.056169135584977 zlo zhi

Masses

1 1.00794
2 15.9994

Atoms # full

707 1 1 0.5897 3.049624548029434 1.729642987432388 3.872969131627216 0 0 0
706 1 2 -1.1794 3.1373852126041406 1.6774007580770836 2.9211368202484547 0 0 0
30 1 1 0.5897 5.288506910858435 3.7218456823147075 2.40852641728959 0 0 0
708 1 1 0.5897 2.3964484389876795 2.180980034978831 2.5837966534026324 0 0 0
29 1 1 0.5897 4.456086970671328 2.474373914657424 2.2009412329919535 0 0 0
28 1 2 -1.1794 5.295635345760928 2.8715397960285713 1.9689060680143315 0 0 0
137 1 1 0.5897 5.170456959965532 5.655298719539914 4.0096953060885046 0 0 0
495 1 1 0.5897 8.192201792276173 2.072402282130839 2.8719623876788223 0 0 0
136 1 2 -1.1794 5.245117421227444 5.4293974199079065 3.0824475105159665 0 0 0
494 1 1 0.5897 6.703737559462576 1.9772231206281696 2.6115836352087993 0 0 0
493 1 2 -1.1794 7.434450753680043 1.503823734720649 3.009509257695154 0 0 0
846 1 1 0.5897 7.6460340313974005 1.6558417293819252 4.814477849901206 0 0 0
1 1 2 -1.1794 0.9535310300069447 3.4776523610862506 2.321586510468561 0 0 0
3 1 1 0.5897 0.8538769832447681 4.418573701144151 2.466742488127849 0 0 0
20 1 1 0.5897 0.8373517838103498 3.0809712235147333 0.37650916251433286 0 0 0
2 1 1 0.5897 0.22331304567839666 3.0826376274722254 2.7981928743901174 0 0 0
668 1 1 0.5897 5.536810887788535 2.8894906858045877 0.22401205423350107 0 0 0
138 1 1 0.5897 4.5736478663968665 5.958515389729813 2.6516804208440825 0 0 0
673 1 2 -1.1794 2.9511564727429604 1.7736200087257912 10.487892510719215 0 0 0
34 1 2 -1.1794 0.9929323003936488 3.193915139162325 9.584615833341516 0 0 0
356 1 1 0.5897 7.145305798594362 0.7687562805648349 10.405954150401675 0 0 0
112 1 2 -1.1794 0.35445540421414734 5.919592021616231 10.297027742197075 0 0 0
183 1 1 0.5897 0.8610678069816037 5.006383417659468 6.232694448463718 0 0 0
845 1 1 0.5897 7.3064589488229545 0.980711092055286 6.1264233562676225 0 0 0
82 1 2 -1.1794 5.444750238192817 3.142731503536849 6.746237129603071 0 0 0
35 1 1 0.5897 1.003942316251251 4.10263677464997 9.885324578650811 0 0 0
784 1 2 -1.1794 0.7911925396742743 3.3378121964461354 6.902796488087447 0 0 0
176 1 1 0.5897 8.829821231205578 2.265693076595944 9.600157180929465 0 0 0
355 1 2 -1.1794 7.32864283597545 1.7032640938615193 10.502921663564274 0 0 0
274 1 2 -1.1794 5.222634283690811 2.990936667995435 9.41895518268413 0 0 0
678 1 1 0.5897 5.056303059460166 4.620557354093539 10.10139937514211 0 0 0
83 1 1 0.5897 4.695240298990053 2.6766652136371913 6.375564047248378 0 0 0
36 1 1 0.5897 1.720097371715936 2.7787720502927384 10.048595765604908 0 0 0
489 1 1 0.5897 3.0333766248017424 1.1316787040421306 6.017210686819442 0 0 0
674 1 1 0.5897 3.774768021446141 2.1501913377364086 10.177651461568582 0 0 0
84 1 1 0.5897 6.195838518873831 2.8281400730867103 6.242956592653069 0 0 0
276 1 1 0.5897 6.012640767896379 2.5501792778827603 9.732019081814263 0 0 0
675 1 1 0.5897 2.88265329612622 0.9359308835692761 10.02972333730107 0 0 0
275 1 1 0.5897 5.335626511137035 3.0404530086851125 8.469643367156092 0 0 0
686 1 1 0.5897 5.1490904187277655 4.823134364101582 5.911670666503739 0 0 0
785 1 1 0.5897 0.902482263450118 3.2849536215352644 7.852125099846261 0 0 0
488 1 1 0.5897 2.335783299735791 2.4726768965206802 6.102262257493053 0 0 0
676 1 2 -1.1794 4.920256941282046 5.502706557732176 10.447286051791012 0 0 0
844 1 2 -1.1794 7.658048575817364 1.7929913171164724 5.761819743677419 0 0 0
487 1 2 -1.1794 3.091797932071146 2.0362055007417386 5.7094079372333555 0 0 0
685 1 2 -1.1794 5.3199971895358455 5.758927452474989 5.8049012925600385 0 0 0
677 1 1 0.5897 5.751567812938472 5.9516999389861045 10.293261729032299 0 0 0
181 1 2 -1.1794 0.9306418684578522 5.880495815892784 5.848731017972925 0 0 0
166 1 2 -1.1794 3.006338217405638 1.851258785935301 13.15756785831832 0 0 0
167 1 1 0.5897 2.8894968915481978 1.811321494387252 12.208276458330502 0 0 0
457 1 2 -1.1794 5.187067998454371 3.1477175447331978 14.132892172404055 0 0 0
458 1 1 0.5897 5.933934225931898 2.654264001062473 13.793667987863888 0 0 0
459 1 1 0.5897 4.4201132146189135 2.675385471786085 13.808755633763514 0 0 0
762 1 1 0.5897 5.330795327924499 4.935558726961902 13.623378677187228 0 0 0
594 1 1 0.5897 8.21927773427487 2.4797649917333398 13.580219393264331 0 0 0
168 1 1 0.5897 2.203651798171263 2.2603547462154503 13.481185710019108 0 0 0
71 1 1 0.5897 4.960953302042987 3.2200894270071423 15.91496388632373 0 0 0
592 1 2 -1.1794 7.417642077080272 2.0634458161858342 13.263249821703212 0 0 0
365 1 1 0.5897 0.3779498278809063 4.608547753887558 13.511576053733595 0 0 0
468 1 1 0.5897 0.4693426309379834 2.9660714665936303 14.951525046852566 0 0 0
593 1 1 0.5897 7.46644115538499 1.1662656087034207 13.593458626907116 0 0 0
466 1 2 -1.1794 0.5008714838868273 2.9795606604368072 13.994834290151923 0 0 0
357 1 1 0.5897 7.289036497745106 1.8589606788588537 11.446634063860296 0 0 0
761 1 1 0.5897 5.109564702259953 5.649035539927069 12.306460789079654 0 0 0
113 1 1 0.5897 0.38913663412920196 5.7758791689958775 11.242832320462345 0 0 0
364 1 2 -1.1794 0.44311570121399596 5.471644479112964 13.102732101920115 0 0 0
366 1 1 0.5897 1.3413119161174287 5.752829301509398 13.277594192849195 0 0 0
760 1 2 -1.1794 5.352248341565653 5.803195786035312 13.219555090353953 0 0 0
21 1 1 0.5897 0.9070250787428984 3.6290053134678573 20.86599875749902 0 0 0
40 1 2 -1.1794 7.726301086760415 1.8605031162474852 20.295932141916296 0 0 0
756 1 1 0.5897 6.773541545838471 2.3310237582315043 17.352464792559378 0 0 0
755 1 1 0.5897 7.70721006448205 1.9106954873649593 18.46776967850302 0 0 0
754 1 2 -1.1794 7.635072995635487 1.946141942724076 17.51386185059803 0 0 0
667 1 2 -1.1794 5.549630917176711 3.00501893934222 21.17294484291094 0 0 0
289 1 2 -1.1794 2.7677188915371955 1.9657275484960184 17.62501814787808 0 0 0
72 1 1 0.5897 4.259005250076701 2.7433472315790883 17.168882272496596 0 0 0
143 1 1 0.5897 5.394747012783517 4.736776884538062 20.76362726429274 0 0 0
569 1 1 0.5897 2.479607436753759 2.383224154265216 20.675597741857565 0 0 0
133 1 2 -1.1794 0.45155649212174875 3.191115663945591 16.628810747724575 0 0 0
570 1 1 0.5897 2.9455938446621186 1.7461839172316684 19.383559559395195 0 0 0
648 1 1 0.5897 0.5650401387146399 5.581364369790607 19.588098549235323 0 0 0
669 1 1 0.5897 4.748397760312563 2.578697957067267 20.868515289367934 0 0 0
134 1 1 0.5897 0.2894807485561066 4.048643844375796 17.022140700464636 0 0 0
291 1 1 0.5897 1.9067574671718617 2.321274540057787 17.404238911585384 0 0 0
568 1 2 -1.1794 3.2496487688728193 2.000510551698622 20.254932502870364 0 0 0
41 1 1 0.5897 6.825788297757487 2.118128084256572 20.493688587085426 0 0 0
42 1 1 0.5897 7.80779653367052 0.9772823824788218 20.65594203346592 0 0 0
142 1 2 -1.1794 5.1969768666011324 5.647988669449943 20.54704650399529 0 0 0
278 1 1 0.5897 5.19153432076455 4.771423915282079 17.54377605584912 0 0 0
290 1 1 0.5897 2.788717200354337 1.1074625876928277 17.201593490646836 0 0 0
70 1 2 -1.1794 5.07514822824466 3.138407012452271 16.86191388853166 0 0 0
19 1 2 -1.1794 0.8470492744576023 2.8098193030292387 21.35760971202146 0 0 0
277 1 2 -1.1794 5.18374514143178 5.6914482372464095 17.80799592230837 0 0 0
144 1 1 0.5897 5.21051064552688 5.675662548747483 19.59024865198473 0 0 0
646 1 2 -1.1794 0.7291701361457225 5.428317784585786 20.51873448046379 0 0 0
571 1 2 -1.1794 0.35815329897170683 5.808196695593749 17.63650665976626 0 0 0
647 1 1 0.5897 1.5048175411728348 5.953798913185682 20.715249499106218 0 0 0
81 1 1 0.5897 2.866942275449626 0.25425415052395856 20.773174334968672 0 1 0
323 1 1 0.5897 7.479487382476424 0.1900042446474668 16.997936895172217 0 1 0
599 1 1 0.5897 9.06746468316671 3.016509464639357 17.12856340408194 0 0 0
360 1 1 0.5897 9.067933904081423 2.832222040556769 21.161684463916544 0 0 0
217 1 2 -1.1794 5.608835352334629 11.093749524870251 1.8349621299883851 0 0 0
123 1 1 0.5897 3.3739930178201254 8.930992210288741 2.603430696671611 0 0 0
121 1 2 -1.1794 3.2160215306309916 9.85098363479581 2.8155136034591166 0 0 0
122 1 1 0.5897 3.223735299754469 9.88147959744644 3.772297838416424 0 0 0
44 1 1 0.5897 1.510522051912492 10.3858987414754 2.3816399610231747 0 0 0
218 1 1 0.5897 6.310767959145571 10.56691288430309 2.217228565587356 0 0 0
417 1 1 0.5897 8.206206157710207 6.550958156644866 2.704749143658429 0 0 0
219 1 1 0.5897 4.8027137875541746 10.676349522942417 2.138827830241393 0 0 0
255 1 1 0.5897 2.5339634885973257 6.828999071850793 2.619635683716502 0 0 0
45 1 1 0.5897 0.5805390063066482 11.578208573205687 2.457218658937503 0 0 0
254 1 1 0.5897 2.9946761299323317 7.1312220048777455 1.2094036094050808 0 0 0
415 1 2 -1.1794 7.438619894248204 7.006047222802783 2.358207270213198 0 0 0
793 1 2 -1.1794 3.0762586478890785 10.059717525412173 5.526390161392589 0 0 0
66 1 1 0.5897 7.560295544228757 9.63828995784049 3.892943738819184 0 0 0
65 1 1 0.5897 7.6140928584989815 8.80359740312401 2.630944484336415 0 0 0
64 1 2 -1.1794 7.722272602026714 9.69909469190561 2.9514182108878044 0 0 0
253 1 2 -1.1794 3.2366697696353497 7.2537003094686545 2.127474414089639 0 0 0
416 1 1 0.5897 6.693551409772534 6.494214430748151 2.673291960331126 0 0 0
43 1 2 -1.1794 0.6269529415182773 10.67265562385056 2.150397163931763 0 0 0
712 1 2 -1.1794 7.003453555225892 9.663773443046908 5.586972807871336 0 0 0
162 1 1 0.5897 7.156225407911826 7.156873780601788 0.5732526773378657 0 0 1
396 1 1 0.5897 0.4082378655811916 10.663914186125643 0.3848160468910057 0 0 0
595 1 2 -1.1794 0.8594345924758532 6.089701937764678 3.0859731785502458 0 0 0
597 1 1 0.5897 0.9716348837166505 6.134839607234725 4.035592991734106 0 0 0
528 1 1 0.5897 7.861228584026694 6.529110211742635 9.822558257187241 0 0 0
578 1 1 0.5897 5.751627020071212 10.776271458587294 6.4987375185754495 0 0 0
10 1 2 -1.1794 3.1129119231180056 7.3412691590655355 6.752341152071931 0 0 0
526 1 2 -1.1794 7.076073189175743 7.0078973113367855 9.556710589969342 0 0 0
145 1 2 -1.1794 7.61945136930302 7.210288477781587 6.843479519059274 0 0 0
580 1 2 -1.1794 5.255319643380568 10.827572495882942 9.5369449877047 0 0 0
256 1 2 -1.1794 2.759676779324793 9.708680797459051 10.349883189852678 0 0 0
146 1 1 0.5897 6.90895303955227 6.6615841307444015 6.511021109830813 0 0 0
14 1 1 0.5897 0.5185729925067387 11.644033901842818 9.819594043896634 0 0 0
258 1 1 0.5897 3.6025244367729705 10.07384951378899 10.0803094850084 0 0 0
650 1 1 0.5897 2.920229591249926 7.165064122944043 8.59085954915217 0 0 0
795 1 1 0.5897 3.748986597259461 10.59891166890952 5.942420987404113 0 0 0
527 1 1 0.5897 7.197262344979311 7.886450730922324 9.91696300930842 0 0 0
15 1 1 0.5897 1.2026936576752512 10.299233723833009 9.69435878085223 0 0 0
11 1 1 0.5897 2.289164640615067 7.010617895660901 6.393849852169078 0 0 0
581 1 1 0.5897 6.042393083885353 10.30971140988197 9.706392830918567 0 0 0
147 1 1 0.5897 7.488384700748529 7.2242220891306665 7.791653687127365 0 0 0
13 1 2 -1.1794 0.5071821545183361 10.833401105662842 9.310552834936441 0 0 0
649 1 2 -1.1794 2.7285192453124933 7.077043119929653 9.524617753390405 0 0 0
577 1 2 -1.1794 5.010624412814915 11.248708374820819 6.878354273855902 0 0 0
714 1 1 0.5897 7.192496176882911 8.755160732195447 5.821545587874322 0 0 0
651 1 1 0.5897 3.5183489104016683 6.683557257301966 9.89573422261243 0 0 0
822 1 1 0.5897 8.10191331152008 10.031836366263498 10.120139771671116 0 0 0
257 1 1 0.5897 2.7573692340486877 8.820815090763382 9.992082101227556 0 0 0
551 1 1 0.5897 0.6823923927353961 11.036384153434355 7.49268231853404 0 0 0
820 1 2 -1.1794 7.3644606628268185 9.52796041810139 10.464608288114087 0 0 0
794 1 1 0.5897 2.2484187128842517 10.451492600773328 5.804935459084722 0 0 0
550 1 2 -1.1794 0.6147879218381914 10.970822126648812 6.540034921976186 0 0 0
12 1 1 0.5897 3.130811988605998 8.264608717385661 6.500430059718038 0 0 0
582 1 1 0.5897 5.282556731885764 11.0049409042585 8.596622281153245 0 0 0
165 1 1 0.5897 9.035944077576142 6.098257052325098 6.283133613404749 0 0 0
741 1 1 0.5897 9.038227487392064 10.969154519250285 7.3293996037761735 0 0 0
713 1 1 0.5897 7.740212183244913 10.161501570091795 5.94177609332867 0 0 0
687 1 1 0.5897 4.544871804475459 6.187422992460707 6.168179263532018 0 0 0
114 1 1 0.5897 1.2205490905378604 6.261133997779414 10.074247834312757 0 0 0
828 1 1 0.5897 7.725259132800959 7.211875318471897 14.85063273360508 0 0 0
259 1 2 -1.1794 0.8043946258086975 10.943739423776307 14.232423705116904 0 0 0
332 1 1 0.5897 2.7544608460464324 7.61079207383485 13.605582496916135 0 0 0
797 1 1 0.5897 2.883442382689489 9.573803741198331 12.272795714766941 0 0 0
796 1 2 -1.1794 2.925624056275159 9.439958640008703 13.21975260931217 0 0 0
798 1 1 0.5897 2.1783783676799544 9.92881119036774 13.564768146529708 0 0 0
722 1 1 0.5897 4.447790179727376 10.119084873917712 13.893347886379567 0 0 0
333 1 1 0.5897 3.6808569710963104 6.418934567660139 13.721739469061419 0 0 0
261 1 1 0.5897 0.7354536246499375 10.909633728154411 15.186615791816838 0 0 0
721 1 2 -1.1794 5.186322996314486 10.652338417911325 14.187615648953285 0 0 0
723 1 1 0.5897 5.231074180752203 10.500277143720961 15.131691271435551 0 0 0
331 1 2 -1.1794 2.81454001377976 6.732547561832184 13.981637377871465 0 0 0
225 1 1 0.5897 2.712886036493104 6.73466543865618 15.71813459567249 0 0 0
826 1 2 -1.1794 7.793295846348292 7.395322679061086 13.913554110362348 0 0 0
475 1 2 -1.1794 7.57051150868855 9.942636721617891 13.148223826185193 0 0 0
476 1 1 0.5897 6.707089107258487 10.177310763923845 13.488564661423318 0 0 0
477 1 1 0.5897 7.727267111036811 9.058658100506307 13.48041517060928 0 0 0
827 1 1 0.5897 6.98623958367842 7.040690893974686 13.540341872172768 0 0 0
821 1 1 0.5897 7.450644744506781 9.595948516734078 11.415582766681178 0 0 0
520 1 2 -1.1794 7.482925458639529 6.865087550597682 16.569545682600214 0 0 0
223 1 2 -1.1794 2.735861125419601 6.722399835399807 16.675072381921048 0 0 0
4 1 2 -1.1794 2.8322756314498494 6.8818587889803124 21.27330668760089 0 0 0
7 1 2 -1.1794 7.769158554085746 9.313894063826277 17.591440735362408 0 0 0
139 1 2 -1.1794 7.4305158982790225 9.581578311380408 20.27532719337557 0 0 0
680 1 1 0.5897 4.463854978910681 9.92661301125946 17.10713460660381 0 0 0
363 1 1 0.5897 5.342916342205586 10.8939375475169 21.96958632102384 0 0 0
141 1 1 0.5897 7.369152767684851 8.77729745047544 20.790795007779654 0 0 0
679 1 2 -1.1794 5.304058215940172 10.284563426507896 16.820208880385742 0 0 0
394 1 2 -1.1794 0.5958476101041907 10.743843017088912 21.34863969505239 0 0 0
160 1 2 -1.1794 7.238417037165454 7.154853668069516 21.518639899765223 0 0 0
690 1 1 0.5897 2.221639913563521 10.048167539068357 20.59832671396344 0 0 0
625 1 2 -1.1794 2.8765576203834824 9.33233391885902 17.584936418255474 0 0 0
688 1 2 -1.1794 2.942877695591221 9.459004722718985 20.376794460901465 0 0 0
140 1 1 0.5897 6.663971026508972 10.092512486206939 20.535643321386292 0 0 0
627 1 1 0.5897 2.1753617304035204 9.975270486897255 17.478538632036283 0 0 0
689 1 1 0.5897 3.7323177213432497 9.947874191876195 20.609540378016575 0 0 0
5 1 1 0.5897 3.715508404998031 6.574175495443668 21.069274375432453 0 0 0
626 1 1 0.5897 2.9126452965119616 9.17037523349271 18.52773816972254 0 0 0
287 1 1 0.5897 8.9759676006075 10.433612870270828 20.88473665299937 0 0 0
6 1 1 0.5897 2.818847176161236 7.79015540815929 20.971414603389533 0 0 0
361 1 2 -1.1794 5.204731237881681 10.920493541089531 21.022695556430257 0 0 0
8 1 1 0.5897 7.663137999236444 9.29080732667467 18.54256076589858 0 0 0
224 1 1 0.5897 2.7498648941135087 7.645885912397579 16.92666775921227 0 0 0
9 1 1 0.5897 6.981245785464345 9.754359766921509 17.272738468919602 0 0 0
161 1 1 0.5897 6.486516090161831 6.646687780495151 21.214025085244835 0 0 0
522 1 1 0.5897 7.567302684833164 7.754666138405544 16.91286969298743 0 0 0
521 1 1 0.5897 6.644856851281074 6.554104465850424 16.912100374626114 0 0 0
462 1 1 0.5897 8.896928908102208 6.342086239822551 21.217910165890384 0 0 0
711 1 1 0.5897 8.660576771273977 6.117178517856234 17.67644537093517 0 0 0
572 1 1 0.5897 1.144524912044564 6.151049113942411 17.21169463766366 0 0 0
279 1 1 0.5897 4.375140345132254 6.041704342933256 17.434001735393476 0 0 0
681 1 1 0.5897 5.265044942145019 11.210382859355114 17.060348202289124 0 0 0
445 1 2 -1.1794 0.7729591496009219 10.986964735440763 16.99978502394752 0 0 0
200 1 1 0.5897 5.04837233312193 13.819612100257558 4.907313342964822 0 0 0
173 1 1 0.5897 4.616093701771004 13.735719085241652 2.681229541377278 0 0 0
172 1 2 -1.1794 5.337381442589671 13.371390898739985 3.1944807995321787 0 0 0
293 1 1 0.5897 2.958782196152328 16.318975877153342 2.659116500772138 0 0 0
558 1 1 0.5897 3.166271579513562 14.834141886698484 1.247651806246217 0 0 0
556 1 2 -1.1794 3.1468395487276184 14.608444989101981 2.1777477565509784 0 0 0
557 1 1 0.5897 2.3036830549476752 14.172318897454259 2.3013163066222404 0 0 0
478 1 2 -1.1794 7.55979690336461 14.926991776242975 2.0517814587007077 0 0 0
374 1 1 0.5897 0.6569717137919752 13.634150202769273 3.724342326544275 0 0 0
174 1 1 0.5897 5.529350768255797 12.531904043341612 2.776437841243968 0 0 0
479 1 1 0.5897 8.372124183699247 14.575360554661366 2.416312137650572 0 0 0
449 1 1 0.5897 7.439220480261166 16.53490747864162 2.804584796409603 0 0 0
480 1 1 0.5897 6.865931913959963 14.454635366432393 2.512021283143913 0 0 0
373 1 2 -1.1794 0.6758106075427969 13.40764662499508 2.7944296015782677 0 0 0
308 1 1 0.5897 7.26627609538958 17.476154334516778 4.959838870878848 0 0 0
655 1 2 -1.1794 0.5592727460762105 13.55396841854254 5.57532289407178 0 0 0
292 1 2 -1.1794 2.90435983046645 17.265283636534477 2.792732158438895 0 0 0
294 1 1 0.5897 2.8147598361450408 17.369146690325188 3.740149166771909 0 0 0
317 1 1 0.5897 7.767958387927105 14.887903951224041 0.29560563655353045 0 0 0
448 1 2 -1.1794 7.393086551978835 17.41758195003768 3.1721290994328526 0 0 0
238 1 2 -1.1794 2.6577554191266004 17.35670521926177 5.539650693321943 0 0 0
518 1 1 0.5897 7.241237515681079 15.69027514275648 6.345584974428319 0 0 0
186 1 1 0.5897 7.548151369666031 16.721738664453923 10.016742060873035 0 0 0
201 1 1 0.5897 5.808569643295576 14.259802718816923 6.140453467178291 0 0 0
656 1 1 0.5897 1.260166570212409 13.910469622505298 6.121261282253036 0 0 0
811 1 2 -1.1794 2.9248616549198103 14.701203495781662 9.715550720946926 0 0 0
519 1 1 0.5897 8.236111015199883 14.555392683080637 6.465967312061454 0 0 0
813 1 1 0.5897 2.2233845083232415 14.291693699778065 10.222128356172673 0 0 0
17 1 1 0.5897 2.7110570602889488 14.869584440027783 7.800897236127989 0 0 0
384 1 1 0.5897 2.9969521410683386 16.44425246945427 10.015776048750993 0 0 0
377 1 1 0.5897 6.952818872680516 14.408943028704797 9.900535151686935 0 0 0
376 1 2 -1.1794 7.566323457930402 15.016786619586659 9.487596609245674 0 0 0
59 1 1 0.5897 9.08401795267575 14.144582388922425 9.806106619301069 0 0 0
766 1 2 -1.1794 0.8159106704977175 13.361861741420904 10.784889085516667 0 0 0
812 1 1 0.5897 3.713407727867173 14.218470176612424 9.963645979821106 0 0 0
456 1 1 0.5897 5.229314852573724 12.53959409300962 9.932310511624651 0 0 0
454 1 2 -1.1794 5.24053004450488 13.42063598815352 10.306435993388682 0 0 0
16 1 2 -1.1794 2.5713878903910263 14.848906120970224 6.854071862301425 0 0 0
517 1 2 -1.1794 7.356678183334749 14.822746249640879 6.733403883541614 0 0 0
184 1 2 -1.1794 7.532172989647626 17.63855342810374 10.291562675281279 0 0 0
378 1 1 0.5897 7.418420940946111 14.905973059569494 8.548300700112756 0 0 0
18 1 1 0.5897 3.396730081877279 14.520913442848041 6.49681453075852 0 0 0
239 1 1 0.5897 2.640229424596389 16.483095824479342 5.930593050367108 0 0 0
307 1 2 -1.1794 7.192292044864845 17.51472515864947 5.913494774235088 0 0 0
199 1 2 -1.1794 4.96240815998901 13.914082147487665 5.856040924071799 0 0 0
552 1 1 0.5897 0.5878340260708771 11.878860165980909 6.238266807505903 0 0 0
382 1 2 -1.1794 2.915207415378016 17.381040245776582 10.19486488189099 0 0 0
579 1 1 0.5897 5.076915627140881 12.131525121141868 6.51423683500365 0 0 0
429 1 1 0.5897 5.7277617985490705 13.892227394724742 13.53705986686469 0 0 0
232 1 2 -1.1794 2.8420348942623015 14.692409014982685 13.856548125686885 0 0 0
234 1 1 0.5897 3.0406506151794437 15.001002701193535 14.740703167979124 0 0 0
606 1 1 0.5897 3.3119646867456165 16.29349191926797 13.060898708670074 0 0 0
427 1 2 -1.1794 5.0642643589687975 13.32396283770484 13.145562999040738 0 0 0
233 1 1 0.5897 3.5154028865481157 14.0368831792437 13.674235030281244 0 0 0
639 1 1 0.5897 1.2467403108391268 13.855581187800832 13.632108459361675 0 0 0
428 1 1 0.5897 5.269882039521644 12.450319626154485 13.478437119435169 0 0 0
638 1 1 0.5897 0.3301658749498298 12.668374194073987 13.838724543123478 0 0 0
297 1 1 0.5897 8.043440974567055 14.397654619190899 13.645164113060682 0 0 0
296 1 1 0.5897 7.156396800177833 14.751899625514545 14.819891328321182 0 0 0
295 1 2 -1.1794 7.226555411937599 14.843487604594417 13.869569965179197 0 0 0
270 1 1 0.5897 7.351111971259822 16.61313951099759 13.314555799689982 0 0 0
637 1 2 -1.1794 0.3718612933089062 13.52894934039406 13.421579873007797 0 0 0
604 1 2 -1.1794 3.289333487113804 17.237200108560728 12.902003189744653 0 0 0
605 1 1 0.5897 3.1668510960332825 17.318455369405342 11.956061740232446 0 0 0
268 1 2 -1.1794 7.556100968457428 17.471571650119415 12.94382858526945 0 0 0
269 1 1 0.5897 7.463905807870772 17.35295321081103 11.998404126852023 0 0 0
49 1 2 -1.1794 7.260305400092365 14.864961155437944 16.493703860096037 0 0 0
767 1 1 0.5897 0.6315743040792804 13.280351310735945 11.72071916780484 0 0 0
455 1 1 0.5897 5.219699407969042 13.279716809610425 11.253067869762223 0 0 0
362 1 1 0.5897 5.372741351268646 11.83138098538129 20.7810793147566 0 0 0
664 1 2 -1.1794 3.3952246279949456 14.59135681349678 21.140693334148082 0 0 0
52 1 2 -1.1794 1.074270761152508 13.555386492973835 17.612796228590685 0 0 0
824 1 1 0.5897 3.9474294174731033 14.332816978900585 16.981967876754876 0 0 0
665 1 1 0.5897 2.6092043978467796 14.112130528917856 20.87817680964173 0 0 0
446 1 1 0.5897 0.7446946896125662 11.89499626352954 17.30144928255772 0 0 0
125 1 1 0.5897 5.53165628306519 13.179400047441693 18.313038742424872 0 0 0
53 1 1 0.5897 1.1310541582780687 13.725437569713248 18.553150957512994 0 0 0
684 1 1 0.5897 4.842746533255928 13.891921457184074 20.178688098010593 0 0 0
451 1 2 -1.1794 0.9157824129161654 13.423253377961487 20.47846759151907 0 0 0
666 1 1 0.5897 3.234755098093282 15.490642053151333 20.854565349754154 0 0 0
318 1 1 0.5897 7.755810464644253 15.820360135233926 21.002008763943394 0 0 0
716 1 1 0.5897 3.2272239304446013 17.284001753513643 19.396637574294033 0 0 0
54 1 1 0.5897 0.25877098055938685 13.976977210363904 17.341445079286494 0 0 0
126 1 1 0.5897 6.045375226375708 13.539706428311217 16.935146275894127 0 0 0
584 1 1 0.5897 3.371756738805706 16.562624882290123 17.23945244408773 0 0 0
683 1 1 0.5897 6.312018826942676 13.977243180566282 20.53410521282786 0 0 0
452 1 1 0.5897 0.8257636796889722 12.54301581672598 20.843712825822045 0 0 0
682 1 2 -1.1794 5.679579080670569 13.44475389970931 20.051556835114784 0 0 0
124 1 2 -1.1794 5.368935492177466 13.030245208148544 17.381545258442834 0 0 0
51 1 1 0.5897 7.957474459189131 14.411355977824304 16.96761256751966 0 0 0
50 1 1 0.5897 7.250724062451948 15.746462257884643 16.866803938160114 0 0 0
316 1 2 -1.1794 7.782826074242178 14.89294263350966 21.237581462461062 0 0 0
825 1 1 0.5897 2.4591518314842324 14.580710896144577 16.855862190820783 0 0 0
610 1 2 -1.1794 7.36638268170335 17.540031755864042 17.546410845272856 0 0 0
715 1 2 -1.1794 3.345466202656542 17.314240795329567 20.34611377681699 0 0 0
583 1 2 -1.1794 3.168410678051548 17.403415666868135 17.6494421189359 0 0 0
157 1 2 -1.1794 7.709207436356673 17.63870728402624 20.4610431449496 0 0 0
823 1 2 -1.1794 3.3101487624944097 14.934452577217872 16.59686924011929 0 0 0
267 1 1 0.5897 6.00741185246832 21.73121942038034 2.7424759687428018 0 0 0
696 1 1 0.5897 1.4212157685073354 21.765198050195174 2.607199433754559 0 0 0
266 1 1 0.5897 4.497739483617006 21.66587511607677 2.6477989410030216 0 0 0
265 1 2 -1.1794 5.249903998736689 21.23710172503945 3.0562008414065787 0 0 0
227 1 1 0.5897 4.356254298391211 18.359928477755567 2.191943309426275 0 0 0
228 1 1 0.5897 5.214561650210028 19.558429351269844 2.537095413040543 0 0 0
695 1 1 0.5897 0.6122287632941208 20.489845455511258 2.5014370513807362 0 0 0
602 1 1 0.5897 5.363909349824033 18.91515697774547 0.33188843975405524 0 0 0
345 1 1 0.5897 0.8557175839552205 18.713272428148784 0.7583108226376758 0 0 0
226 1 2 -1.1794 5.217504580764341 18.745726546444125 2.031272323733269 0 0 0
187 1 2 -1.1794 2.899615451680308 22.606651316121287 2.0166232969340663 0 0 0
249 1 1 0.5897 4.963856911492318 21.31442499768837 4.92571649273939 0 0 0
818 1 1 0.5897 8.311103065269071 22.138863308482193 2.5691833854478197 0 0 0
189 1 1 0.5897 2.7506391006684354 22.73421497452251 1.079642106281653 0 0 0
344 1 1 0.5897 1.450217896930975 18.326753156641132 2.0960294449906267 0 0 0
694 1 2 -1.1794 0.6230412354236229 21.346127933901016 2.9292116956666385 0 0 0
343 1 2 -1.1794 0.6811966826247973 18.73613118610544 1.6992812171090275 0 0 0
817 1 2 -1.1794 7.544520966833147 22.490728098916378 2.116468510644771 0 0 0
450 1 1 0.5897 6.621409175171048 17.808306216922638 2.761957994120716 0 0 0
413 1 1 0.5897 0.569407938908612 21.580168827642105 4.777690560274283 0 0 0
188 1 1 0.5897 3.1277749213276453 23.47678169124171 2.344023579012881 0 0 0
498 1 1 0.5897 7.574812410227932 22.643769655276188 0.34228056007321606 0 0 0
819 1 1 0.5897 7.466477630589008 23.388603163887446 2.4390395545347157 0 -1 0
321 1 1 0.5897 8.926512933960984 18.210750992356218 2.613089652972099 0 0 0
340 1 2 -1.1794 0.5587180887853661 19.018737931303967 6.507521191498259 0 0 0
387 1 1 0.5897 4.9751043035296165 19.690397349277347 6.271624641288105 0 0 0
701 1 1 0.5897 2.7809145206891994 22.991613626884977 7.61959944718038 0 0 0
414 1 1 0.5897 0.5135236734391018 20.92594706112424 6.141928647822825 0 0 0
32 1 1 0.5897 8.018980612853245 22.225275092139114 6.883404396001067 0 0 0
385 1 2 -1.1794 4.852670459967445 18.749941800862693 6.401511330028708 0 0 0
85 1 2 -1.1794 6.9900838187484995 22.625361458978816 9.719814620701724 0 0 0
101 1 1 0.5897 5.992261781375569 18.274769295892945 9.17980914545316 0 0 0
39 1 1 0.5897 3.63060032068918 22.13869263816835 9.747096040816892 0 0 0
37 1 2 -1.1794 2.8426418217841527 22.616837178522047 9.488441480118649 0 0 0
86 1 1 0.5897 7.027496772936974 22.575288118279367 8.764559843863093 0 0 0
341 1 1 0.5897 1.2599227402224755 18.479480425048784 6.141606707143043 0 0 0
100 1 2 -1.1794 5.122763357621999 18.630806829742944 8.996471005631722 0 0 0
102 1 1 0.5897 5.075966814751519 18.669880843799177 8.041124009198521 0 0 0
405 1 1 0.5897 0.44807241201544756 19.40407728922505 9.539720509561876 0 0 0
555 1 1 0.5897 4.8058513688865485 20.185522958209205 9.799203491657702 0 0 0
33 1 1 0.5897 6.544981562134182 22.17049789882674 6.541817300795942 0 0 0
38 1 1 0.5897 2.1203597877468994 22.034017247120246 9.722970118085446 0 0 0
342 1 1 0.5897 0.5385207071456584 18.788246327677165 7.4364245104280915 0 0 0
94 1 2 -1.1794 0.5816626946660126 21.120428255042377 10.054567008952503 0 0 0
31 1 2 -1.1794 7.201857865178119 22.71542345064308 6.975356942497492 0 0 0
702 1 1 0.5897 2.09305872643856 22.391307594756682 6.411789075176424 0 0 0
700 1 2 -1.1794 2.8491716383231758 22.91982589426479 6.6674151392986305 0 0 0
554 1 1 0.5897 5.6003453590852725 21.465523742073294 9.949519085087017 0 0 0
404 1 1 0.5897 1.3941493300750227 18.23441277399146 9.3693177937642 0 0 0
386 1 1 0.5897 5.675074625608079 18.35801003001621 6.107519865567819 0 0 0
553 1 2 -1.1794 4.800268529271432 21.031831385415693 10.24649457267544 0 0 0
87 1 1 0.5897 7.813735332003381 22.235473581664003 10.013029843369184 0 0 0
248 1 1 0.5897 4.352536485594 21.973507474721508 6.143986303762909 0 0 0
309 1 1 0.5897 8.005101677116693 17.930993246274667 6.200646928637814 0 0 0
185 1 1 0.5897 8.363230535196587 17.99707518784146 9.979766220804645 0 0 0
240 1 1 0.5897 3.4500182299862554 17.761797820659723 5.892735456909616 0 0 0
247 1 2 -1.1794 5.105412452333585 21.45375622685384 5.862175471082677 0 0 0
403 1 2 -1.1794 0.487964057008437 18.503379550747255 9.218025164622123 0 0 0
412 1 2 -1.1794 0.5306512630209369 21.781438064222293 5.712777407160921 0 0 0
383 1 1 0.5897 3.6980272433586285 17.769301761597504 9.803909156428908 0 0 0
96 1 1 0.5897 0.504521824164609 21.04956243423122 11.006114274479984 0 0 0
380 1 1 0.5897 0.6856261862125396 20.312362847929258 13.272133360090336 0 0 0
88 1 2 -1.1794 5.515100302102081 21.56537135917533 12.982347243250553 0 0 0
381 1 1 0.5897 1.4938731714037239 21.592553531887084 13.275109097319108 0 0 0
90 1 1 0.5897 5.376428879598381 20.682760945916115 13.32599588094372 0 0 0
763 1 2 -1.1794 5.426888131062048 18.946098054282302 13.793503386067904 0 0 0
738 1 1 0.5897 3.97416454543579 22.15960187365252 13.56030376099112 0 0 0
89 1 1 0.5897 5.244980097940591 21.51117929604517 12.065557526736306 0 0 0
736 1 2 -1.1794 3.1219525368440144 22.460582660823498 13.875823040234911 0 0 0
789 1 1 0.5897 6.9252893326004425 22.441058873531198 13.702579103512312 0 0 0
765 1 1 0.5897 6.205395684389648 18.554418673506007 13.39735607273708 0 0 0
787 1 2 -1.1794 7.686621041656434 22.87868141510844 14.08370999109 0 0 0
503 1 1 0.5897 1.9398225557655364 18.130029783790057 13.756311463462415 0 0 0
504 1 1 0.5897 1.1307398693168806 18.627417116679432 14.935420973736566 0 0 0
474 1 1 0.5897 5.152148012165844 19.179159276560625 15.69743712137593 0 0 0
350 1 1 0.5897 3.2542727722671003 22.807745952536614 15.569970466959287 0 0 0
788 1 1 0.5897 7.561397681128967 22.79800431237056 15.029336643101082 0 0 0