LAMMPS (30 Jul 2021)
  using 1 OpenMP thread(s) per MPI task
package omp 0
using multi-threaded neighbor list subroutines
echo both

include		in.partitions
variable        pid world 0
include		in.temp
variable        temperature equal 246.79
variable	tempDamp equal 100.0
include		in.pressure
variable        pressure equal 750.0
variable        pressureDamp equal 1000.0 # This is 1 ps
include		in.seed
variable        seed world 745823

units		real
atom_style	full
read_restart	restart.lmp.${pid}
read_restart	restart.lmp.0
Reading restart file ...
  restart file = 30 Jul 2021, LAMMPS = 30 Jul 2021
  restoring atom style full from restart
  orthogonal box = (0.095028241 1.2034620 0.11593423) to (18.112544 22.425716 22.097262)
  4 by 4 by 4 MPI processor grid
  restoring pair style lj/cut/tip4p/long/omp from restart
  restoring bond style harmonic/omp from restart
  restoring angle style harmonic/omp from restart
  864 atoms
  576 bonds
  288 angles
Finding 1-2 1-3 1-4 neighbors ...
  special bond factors lj:    0        0        0       
  special bond factors coul:  0        0        0       
     2 = max # of 1-2 neighbors
     1 = max # of 1-3 neighbors
     1 = max # of 1-4 neighbors
     2 = max # of special neighbors
  special bonds CPU = 0.129 seconds
  read_restart CPU = 0.325 seconds
include 	in.setup
variable	out_freq equal 1000
variable	out_freq2 equal 10000
variable	out_freq3 equal 1000

timestep	2.0

neigh_modify    delay 7 every 1

include		in.tip4p
# This is TIP4P/Ice

# create groups ###
group ox type 2
288 atoms in group ox
group hy type 1
576 atoms in group hy

# set charges - beside manually ###
set group ox charge -1.1794
Setting atom values ...
  288 settings made for charge
set group hy charge 0.5897
Setting atom values ...
  576 settings made for charge

# ### TIP3P Potential Parameters ###
pair_style lj/cut/tip4p/long/omp 2 1 1 1 0.1577 8.5
pair_coeff 1 1*2 0.000 0.000
pair_coeff 2 2 0.21084 3.1668
bond_style  harmonic
bond_coeff  1 450 0.9572
angle_style harmonic
angle_coeff 1 55 104.52
kspace_style pppm/tip4p/omp 1.0e-5
pair_modify tail yes

thermo          ${out_freq}
thermo          1000
thermo_style    custom step temp pe etotal epair emol press lx ly lz vol pxx pyy pzz pxy pxz pyz enthalpy

restart 	${out_freq3} restart.lmp.${pid} restart2.lmp.${pid}
restart 	1000 restart.lmp.${pid} restart2.lmp.${pid}
restart 	1000 restart.lmp.0 restart2.lmp.${pid}
restart 	1000 restart.lmp.0 restart2.lmp.0


include         in.dump
dump            myDump all atom ${out_freq2} dump.water.${pid}
dump            myDump all atom 10000 dump.water.${pid}
dump            myDump all atom 10000 dump.water.0
dump            myDump2 all dcd ${out_freq2} dump.dcd
dump            myDump2 all dcd 10000 dump.dcd
dump_modify     myDump append yes
dump_modify     myDump2 append yes


variable natoms 	equal  "count(all)"                        # NUMBER ATOMS
variable H      	equal  "enthalpy/v_natoms"                 # ENTHALPY-per-atom
variable Vol      	equal  "vol/v_natoms"                 # volume-per-atom
fix AVG all 		ave/time ${out_freq} 1 ${out_freq} v_Vol v_H file vol_enthalpy.dat
fix AVG all 		ave/time 1000 1 ${out_freq} v_Vol v_H file vol_enthalpy.dat
fix AVG all 		ave/time 1000 1 1000 v_Vol v_H file vol_enthalpy.dat


timer           timeout 23:50:00 every 1000
New timer settings: style=normal  mode=nosync  timeout=23:50:00

fix 		1 all shake 1e-6 200 0 b 1 a 1
       0 = # of size 2 clusters
       0 = # of size 3 clusters
       0 = # of size 4 clusters
     288 = # of frozen angles
  find clusters CPU = 0.438 seconds
fix             2 all nph iso ${pressure} ${pressure} ${pressureDamp}
fix             2 all nph iso 750 ${pressure} ${pressureDamp}
fix             2 all nph iso 750 750 ${pressureDamp}
fix             2 all nph iso 750 750 1000
fix             3 all temp/csvr ${temperature} ${temperature} ${tempDamp} ${seed}
fix             3 all temp/csvr 246.79 ${temperature} ${tempDamp} ${seed}
fix             3 all temp/csvr 246.79 246.79 ${tempDamp} ${seed}
fix             3 all temp/csvr 246.79 246.79 100 ${seed}
fix             3 all temp/csvr 246.79 246.79 100 745823

run             250000
PPPM initialization ...
  extracting TIP4P info from pair style
  using 12-bit tables for long-range coulomb (../kspace.cpp:340)
  G vector (1/distance) = 0.37232035
  grid = 24 25 25
  stencil order = 5
  estimated absolute RMS force accuracy = 0.0032099765
  estimated relative force accuracy = 9.6667489e-06
  using double precision FFTW3
  3d grid and FFT values/proc = 2940 384
Last active /omp style is kspace_style pppm/tip4p/omp
Neighbor list info ...
  update every 1 steps, delay 7 steps, check yes
  max neighbors/atom: 2000, page size: 100000
  master list distance cutoff = 10.8154
  ghost atom cutoff = 10.8154
  binsize = 5.4077, bins = 4 4 5
  1 neighbor lists, perpetual/occasional/extra = 1 0 0
  (1) pair lj/cut/tip4p/long/omp, perpetual
      attributes: half, newton on, omp
      pair build: half/bin/newton/omp
      stencil: half/bin/3d
      bin: standard
Per MPI rank memory allocation (min/avg/max) = 9.235 | 9.239 | 9.249 Mbytes
Step Temp PotEng TotEng E_pair E_mol Press Lx Ly Lz Volume Pxx Pyy Pzz Pxy Pxz Pyz Enthalpy 
13000000    253.91878   -3910.2588   -3475.0507   -3910.2588            0    57.109443    18.017516    21.222254    21.981327    8405.0506   -494.14655    18.702091    646.77279   -1610.2092    -139.3614    338.09429   -3468.0503 
13001000    243.14993   -3932.2947    -3515.544   -3932.2947            0    2218.0101    17.926339     21.11486    21.870092    8278.0953    2554.0793    2520.7111    1579.2398   -21.860558   -924.70008   -25.582634   -3247.7691 
13002000    242.59488   -3923.5997   -3507.8003   -3923.5997            0    722.53948     18.04339    21.252731    22.012894    8441.3135   -56.986443    188.19436    2036.4105    332.52433    391.42174    -1.659314     -3418.85 
13003000    243.97346   -3938.7377   -3520.5755   -3938.7377            0    293.94502     18.05442    21.265721     22.02635    8456.8024    1049.5128    587.29391   -754.97165   -457.83899    41.940981     51.04383   -3484.3221 
13004000    239.87672   -3974.9959   -3563.8554   -3974.9959            0    1416.1207    17.997639    21.198841    21.957078     8377.264   -122.75829    1542.8841    2828.2362    297.71326   -460.12603    127.76537   -3390.8426 
13005000    247.36014   -3945.0747   -3521.1079   -3945.0747            0    1061.5509    18.212065    21.451407    22.218677    8680.2686    3255.5498   -114.32131    43.424264   -879.09484    1451.3371    20.962319   -3386.7231 
13006000    246.41211   -3936.5225   -3514.1805   -3936.5225            0    87.642156    18.244118    21.489161    22.257781    8726.1801   -199.65785     1020.868   -558.28364   -265.02405   -296.44063    29.383906    -3503.027 
13007000    256.19448   -3952.4157   -3513.3072   -3952.4157            0    -76.29056    18.153619    21.382565    22.147373    8596.9665    508.30192   -580.88626   -156.28734    105.45216   -1474.8975    336.50766   -3522.8723 
13008000    250.05105    -3929.593    -3501.014    -3929.593            0   -490.18844    18.258126     21.50566    22.274871    8746.2959   -48.583158   -920.66317   -501.31899    407.48919    68.565114    306.25247   -3563.5404 
13009000    257.49081   -3940.9029   -3499.5724   -3940.9029            0    260.09901    18.258308    21.505875    22.275093    8746.5581    239.59451   -132.36596     673.0685   -177.65757   -311.69702     51.80182   -3466.3943 
13010000    252.66544   -3963.4477   -3530.3878   -3963.4477            0    814.29888    18.189569     21.42491    22.191232    8648.1425    2180.0259    749.88251   -487.01177   -75.500071    295.01689    288.35125   -3427.6849 
13011000    240.29355   -3945.2189    -3533.364   -3945.2189            0    2963.9287    18.213642    21.453265    22.220601    8682.5242    2554.7566    2455.5572    3881.4725   -130.04757    -957.9236   -461.31328   -3158.0544 
13012000    257.19053   -3946.7309   -3505.9152   -3946.7309            0   -207.33613     18.30154    21.556796    22.327836    8808.8349    150.84669   -8.2130375   -764.64204   -1145.1894   -259.12911   -170.34635   -3532.5512 
13013000    254.32339   -3949.6555   -3513.7539   -3949.6555            0    1117.9433    18.311726    21.568794    22.340263    8823.5517    783.87992    953.85652    1616.0933   -561.13463    42.076946    -1707.964   -3369.8942 
13014000    235.97179   -3965.6554   -3561.2078   -3965.6554            0    1039.4469    18.281617     21.53333     22.30353    8780.0987    1132.6899    858.76602    1126.8848    36.018197    954.46379       188.52   -3428.1079 
13015000    252.14516   -3979.9399   -3547.7717   -3979.9399            0    1390.2197    18.240033     21.48435    22.252798    8720.3207    2557.0457    1757.2747   -143.66134   -1036.4413    170.88927    841.01268   -3370.9678 
13016000    246.94903   -3952.2335   -3528.9713   -3952.2335            0    376.45158    18.189937    21.425343     22.19168    8648.6663   -248.80026    818.68373    559.47127    707.15182     124.9197    706.56568   -3481.4888 
13017000    250.92209   -3971.9459    -3541.874   -3971.9459            0    1366.8123    18.160793    21.391015    22.156125    8607.1629    1056.0731   -210.04712    3254.4108     140.1242   -759.05838    39.152119   -3370.3027 
13018000    236.23616   -3982.2051   -3577.3044   -3982.2051            0   -499.01612    18.233731    21.476926    22.245109    8711.2846   -631.41389    310.05354    -1175.688    484.54838    184.87332   -55.336933    -3640.702 
13019000    247.24725   -3981.8822   -3558.1089   -3981.8822            0   -562.12797     18.27474     21.52523     22.29514     8770.194   -85.103835    32.109539   -1633.3896    983.48665    23.248083   -287.62973   -3630.0074 
13020000     243.2012   -3983.0768   -3566.2382   -3983.0768            0   -904.90713    18.212342    21.451734    22.219015    8680.6652   -1127.3407   -768.74885   -818.63186   -811.37859    -109.2075   -664.05175   -3680.7982 
13021000    238.82128   -3977.0024   -3567.6709   -3977.0024            0    1351.8525    18.147929    21.375863    22.140431    8588.8853    987.06559    1519.9425    1548.5495    553.02957    695.51364   -820.97485   -3398.3377 
13022000    258.18475   -3974.2485   -3531.7287   -3974.2485            0    892.60327    18.190625    21.426154    22.192521     8649.649     1149.714    1109.6383    418.45748    1175.2424    607.47366    1039.1193   -3419.1301 
13023000    238.04904   -3980.1007   -3572.0928   -3980.1007            0     762.5426    18.109253    21.330307    22.093246    8534.0889    976.56363    945.62409    365.44008   -1036.6535    1293.7401   -71.906219    -3477.186 
13024000    261.62398   -3936.0367   -3487.6222   -3936.0367            0    35.491011    18.184703    21.419178    22.185295    8641.2037    1410.0217   -743.83224   -559.71642     743.1883    1292.3084    458.80478   -3483.1495 
13025000    242.13236   -3934.3058   -3519.2992   -3934.3058            0    1511.1513    18.133336    21.358675    22.122628    8568.1826    1056.6775    3528.9004   -52.124089    760.39902   -737.00734    298.15951   -3330.4685 
13026000     261.4431   -3943.8226   -3495.7181   -3943.8226            0    1389.5684    18.047688    21.257792    22.018137    8447.3465    981.00097     2346.489    841.21524    254.47794   -513.07123   -526.55722    -3324.529 
13027000    235.57391   -3912.8799   -3509.1143   -3912.8799            0   -73.106202    18.180696    21.414459    22.180407    8635.4929   -511.48831    421.21034   -129.04064    754.77547    111.11031   -441.16668   -3518.3213 
13028000    246.69547   -3968.5827   -3545.7551   -3968.5827            0    229.63577    18.178166    21.411478     22.17732    8631.8874    493.18492    859.89828   -664.17589    238.72316    728.72606   -316.91351   -3516.8469 
13029000    230.37817   -3939.3873    -3544.527   -3939.3873            0     258.5089    18.091648    21.309571    22.071768    8509.2239    952.30262    285.51552   -462.29145    599.28788    440.47008    1195.2565   -3512.4465 
13030000    251.33038   -3919.2703   -3488.4987   -3919.2703            0    1215.0132    18.018004    21.222829    21.981923    8405.7342    1099.8324    1668.7734    876.43369    901.26271    340.70999    253.37688   -3339.5514 
13031000    247.74615   -3904.4546   -3479.8262   -3904.4546            0    2163.8375    18.005803    21.208457    21.967037    8388.6686    2465.2603    2870.1441     1156.108    662.13643   -870.77203   -1965.7401   -3215.1021 
13032000    254.93382   -3941.2826   -3504.3347   -3941.2826            0    1206.6768    17.951242    21.144192    21.900474    8312.6428     2.501415    2130.5695    1486.9595    422.60374    1531.3283   -871.34144   -3358.0476 
13033000    247.59471   -3935.6136   -3511.2448   -3935.6136            0    56.158369    18.067918    21.281621    22.042818    8475.7852    1159.3475   -450.50853   -540.36391    413.19104    1045.1859    192.60814    -3504.303 
13034000    232.25186   -3950.4055   -3552.3338   -3950.4055            0     430.3471    18.149757    21.378017    22.142662    8591.4815    83.009418   -344.64767    1552.6796   -552.43122   -77.465898    831.09358   -3498.4121 
13035000    238.50816   -3963.5887   -3554.7939   -3963.5887            0    668.24143    18.085555    21.302395    22.064335    8500.6306    356.50123   -60.509658    1708.7327   -1107.6596    5.2377843   -283.89689     -3471.95 
13036000    243.46495   -3960.6621   -3543.3715   -3960.6621            0    2361.1048    18.043481    21.252837    22.013004      8441.44    1884.7203    2742.1576    2456.4367    979.45112    1130.1795   -397.95134   -3252.6965 
13037000    242.05585   -3923.0485    -3508.173   -3923.0485            0    1885.7257    18.029469    21.236333     21.99591    8421.7896    480.12527    3272.5026    1904.5491    267.22581    419.87293    1044.6577   -3276.5622 
13038000    253.65124   -3954.8599   -3520.1103   -3954.8599            0    600.76092    18.049444    21.259861    22.020279    8449.8125    765.36847   -654.05837    1690.9726    83.849829   -449.27308    1058.4108   -3446.0775 
13039000    240.23536   -3923.7005   -3511.9453   -3923.7005            0   -414.81912    18.101861    21.321601    22.084228    8523.6434   -278.57338    541.22293   -1507.1069    619.60899    829.32921   -949.62627   -3563.5109 
13040000    236.23573   -3910.8016   -3505.9016   -3910.8016            0    1893.9191    17.913495     21.09973    21.854422    8260.3137     2990.186   -487.09546    3178.6667   -1084.3221    302.54411   -954.34315   -3277.7446 
13041000    239.63122   -3916.9361   -3506.2164   -3916.9361            0    994.81969    17.971611    21.168184    21.925323    8340.9711    3152.1047    142.52259   -310.16821     540.4422   -750.66619    735.52315   -3385.2021 
13042000    236.67402   -3907.5477   -3501.8965   -3907.5477            0    1140.2806    17.890151    21.072235    21.825943    8228.0634    2372.6774    1344.1923   -296.02786    154.16362    -979.2464    770.54388   -3365.0653 
13043000     241.9639    -3908.521   -3493.8031    -3908.521            0    194.45447    17.917465    21.104407    21.859265    8265.8071    384.91549   -347.60585    546.05378   -874.51914   -286.65954   -189.37333    -3470.362 
13044000    261.23666   -3959.1598   -3511.4091   -3959.1598            0    667.83249    17.957033    21.151013    21.907538    8320.6894    1081.0525    400.34747    522.09755   -621.90115     -426.815   -468.82986   -3430.3685 
13045000    232.90679   -3948.6028   -3549.4086   -3948.6028            0    1240.2045    17.929001    21.117995     21.87334    8281.7838     67.65213    1426.1062    2226.8552    589.95911   -309.37145   -30.328448    -3399.615 
13046000    248.31356   -3933.6224   -3508.0215   -3933.6224            0    968.96809    17.927315    21.116008    21.871282    8279.4465    1341.8491    1099.5644    465.49075    791.79764    194.27578   -210.28031   -3391.0213 
13047000    247.16581   -3947.6147    -3523.981   -3947.6147            0    2128.5087    17.867317    21.045339    21.798085    8196.5971    1315.7818     3218.016    1851.7282     640.6946    275.16242    1670.8891   -3269.5412 
13048000    249.73087   -3920.9328   -3492.9027   -3920.9328            0    1987.4474    17.926266    21.114774    21.870003    8277.9943    2845.6643    1817.3995    1299.2783    203.95813    458.41122    628.98016    -3252.966 
13049000      254.433   -3925.6829   -3489.5935   -3925.6829            0    1565.8548    17.925326    21.113666    21.868856    8276.6914    2664.7579    1956.4024    76.404134   -27.351291    265.34322   -1394.1303   -3300.5837 
13050000    247.81148   -3926.9676   -3502.2272   -3926.9676            0    749.00653    17.981048    21.179299    21.936836    8354.1173    1635.4539    1223.2417   -611.67601   -1305.5159    985.46348    274.91229    -3410.971 
13051000    245.31245   -3898.6407   -3478.1835   -3898.6407            0    193.24443    18.058142    21.270106    22.030891    8462.0342    1469.1605   -1573.1424    683.71518    979.11611   -379.85488   -176.18105   -3454.3352 
13052000    238.16054   -3919.8554   -3511.6564   -3919.8554            0    728.10434    18.034767    21.242573    22.002373     8429.216    1239.5625    449.87768    494.87289   -749.17682    32.432956   -81.149001   -3422.1495 
13053000    249.55709   -3941.5051   -3513.7728   -3941.5051            0    1887.2385    17.942316    21.133679    21.889584     8300.249    1961.0051    1476.9824    2223.7282    491.97599    213.79239   -1226.0995   -3285.3214 
13054000    245.74897   -3916.6501   -3495.4447   -3916.6501            0    1628.8949    18.079678    21.295472    22.057165    8492.3455    3037.2494    2038.2324   -188.79696   -308.49884    -1119.738   -1057.9207   -3293.7026 
13055000    239.34054   -3926.6501   -3516.4286   -3926.6501            0   -233.50584    18.136452    21.362345    22.126429    8572.6004    1126.9678    87.892341   -1915.3776    -1639.611   -476.77105   -1098.5155   -3545.6221 
13056000    264.28171   -3933.4024   -3480.4326   -3933.4024            0    1540.5407    18.054759    21.266121    22.026764    8457.2796    1873.4797    2251.4772    496.66508    106.52042    772.83481    757.06086   -3290.4212 
13057000    252.57461   -3937.7293    -3504.825   -3937.7293            0    1210.2981    18.076333    21.291533    22.053085    8487.6335    452.36052    3394.9334   -216.39956    117.82415    -272.7923      948.106   -3355.0102 
13058000    250.31887   -3922.0037   -3492.9657   -3922.0037            0    -3.864156    18.044012    21.253462    22.013652    8442.1853    701.16942   -334.82827   -377.93362   -561.27956    848.08434   -252.11719   -3493.4414 
13059000      249.593    -3919.519   -3491.7251    -3919.519            0     1548.754    17.991231    21.191294     21.94926    8368.3192    1319.5463    188.12213    3138.5936   -505.84872   -569.46398   -297.96348     -3302.71 
13060000    235.52477   -3942.8833   -3539.2019   -3942.8833            0    163.70593    18.133047    21.358335    22.122275    8567.7735    582.53074   -761.94263     670.5297   -954.65285   -878.32073    990.97223   -3518.7465 
13061000    243.26225   -3921.2126   -3504.2694   -3921.2126            0    850.90066    18.134683    21.360261    22.124271    8570.0924    854.36782    2161.0557   -462.72154   -41.654295    120.91632     877.3863   -3397.9187 
13062000    235.45932   -3892.7057   -3489.1364   -3892.7057            0    1266.7602     18.07622      21.2914    22.052947    8487.4743    2162.1257      1483.41    154.74507    188.76291   -186.92182   -1577.3615   -3332.3355 
13063000    258.01556   -3911.5905   -3469.3606   -3911.5905            0    251.99641     18.13738    21.363438    22.127561    8573.9161    168.28552    1088.4082   -500.70444   -99.366904   -365.54718    528.67399   -3437.8506 
13064000    245.51985   -3913.1782   -3492.3655   -3913.1782            0    1113.1426    18.074784    21.289708    22.051194    8485.4506    2195.9456     583.3077    560.17449    1190.5763   -1166.2387    293.64073   -3354.6124 
13065000    240.94826   -3924.0147   -3511.0377   -3924.0147            0    374.39652    18.009619    21.212952    21.971693    8394.0037   -349.89323   -233.89157    1706.9744    1040.3238    61.335664    293.48104   -3465.2048 
13066000    257.50444   -3892.8747   -3451.5209   -3892.8747            0    831.24718    18.050894    21.261568    22.022048    8451.8487    557.71383    1051.2793     884.7484   -709.88736   -494.80519    596.14774   -3349.0601 
13067000    229.95409   -3928.7163   -3534.5829   -3928.7163            0    1105.2253    17.998834    21.200249    21.958536    8378.9329    1130.2788    572.58698      1612.81    512.13406   -184.01079    1616.4816   -3399.5264 
13068000    245.76519   -3919.3845   -3498.1514   -3919.3845            0    386.56233    18.017714    21.222487    21.981569    8405.3274     493.2526    1136.1844   -469.74995   -512.33843   -412.11768   -301.49697   -3450.7654 
13069000    226.13911     -3933.27   -3545.6753     -3933.27            0     1807.588    17.966428    21.162079       21.919    8333.7563    2822.2122    2724.9358   -124.38403   -1080.6091    511.29896    441.77932   -3325.9823 
13070000    237.43912   -3907.4808   -3500.5183   -3907.4808            0   -840.58234    18.058866    21.270959    22.031775    8463.0527   -738.44373    -1523.957   -259.34625   -918.89778    283.19712   -437.22153   -3604.2671 
13071000    239.35567   -3924.9393   -3514.6919   -3924.9393            0    1186.8461    17.962654    21.157634    21.914396    8328.5065    1272.6235    1180.0975    1107.8173   -731.43384   -247.00282    1046.5632   -3370.5343 
13072000    258.73112   -3886.5817   -3443.1255   -3886.5817            0    1376.4232    17.967876    21.163784    21.920766    8335.7714   -291.73833    1966.6918    2454.3161   -842.24193   -1273.3576    831.37194   -3275.7955 
13073000     235.0117   -3939.3378   -3536.5358   -3939.3378            0    1851.7204    18.151194     21.37971    22.144415    8593.5225    1331.7139    3389.3305    834.11677    304.65615   -114.67294    -1017.758   -3304.4639 
13074000    253.81594    -3947.787   -3512.7552    -3947.787            0    1194.8609    18.173129    21.405545    22.171175    8624.7141    918.42075     792.2401    1873.9219   -1001.7813    687.34521    107.54595   -3362.4625 
13075000    245.97271   -3941.1583   -3519.5695   -3941.1583            0   -679.55753    18.121245    21.344433    22.107877    8551.0553   -1448.1509   -1691.1479    1100.6262    96.609687    208.46879   -1070.5779    -3604.316 
13076000    229.03165   -3913.4986   -3520.9462   -3913.4986            0    1538.2904    18.181381    21.415266    22.181243    8636.4688    2238.6907    912.72444    1463.4559    1318.1865    -829.6353   -1533.8978   -3327.1923 
13077000    235.85799   -3952.5529   -3548.3003   -3952.5529            0    167.63666    18.167212    21.398576    22.163956    8616.2929    1070.0588   -180.77433   -386.37451    328.38799    290.31836   -625.91133   -3527.2352 
13078000    266.32692   -3925.9851   -3469.5099   -3925.9851            0    371.06813     18.13857     21.36484    22.129013    8575.6046    113.85314    604.61755    394.73369    45.544068   -533.11263   -297.17019   -3423.1018 
13079000    252.62974   -3960.2975   -3527.2987   -3960.2975            0     1359.166    18.132716    21.357945    22.121872    8567.3045    1155.7338    1086.7001    1835.0639   -637.60839    526.05316    262.71856   -3357.4773 
13080000    258.27462    -3914.765   -3472.0911    -3914.765            0    1618.5967    18.187905     21.42295    22.189202    8645.7692    1518.4096    265.49749    3071.8829   -900.91205   -1262.0903   -1583.7043   -3268.0028 
13081000      243.559   -3911.6018     -3494.15   -3911.6018            0    1092.8734    18.096059    21.314767    22.077149    8515.4496    1606.7915    742.86188    928.96696   -118.45364    130.17435    66.159194   -3358.4271 
13082000     239.5491   -3942.8904   -3532.3114   -3942.8904            0   -665.80416    18.176174    21.409132     22.17489    8629.0502   -1710.7634   -473.64163    186.99258     191.4633   -652.58548    427.20045   -3616.1001 
13083000     235.7026   -3930.6477   -3526.6616   -3930.6477            0    233.59961    18.214035    21.453727     22.22108    8683.0858   -1232.6027    924.95451    1008.4471   -833.78221    1036.7717    488.27848   -3497.0799 
13084000    252.03388   -3910.6337   -3478.6563   -3910.6337            0     1203.487    18.093004    21.311169    22.073423    8511.1382    2808.4357    908.40287   -106.37747    83.871621   -875.75714   -303.34498    -3329.272 
13085000    245.34998   -3946.2847   -3525.7633   -3946.2847            0    1928.3683    18.001635    21.203548    21.961953    8382.8452    2105.9326    2397.9995    1281.1729    -655.9681    399.34988    4.9187286   -3290.0102 
13086000    243.65756   -3949.3784   -3531.7577   -3949.3784            0    680.18918    18.129195    21.353797    22.117576    8562.3143    1096.7064   -464.26339    1408.1245    2.4647256   -586.12915    256.62524   -3446.8207 
13087000    237.02901    -3941.127   -3534.8674    -3941.127            0    1155.8188    18.137671    21.363781    22.127916    8574.3293      919.919    1881.0607     666.4766    1379.2114    722.11027    -485.7312   -3390.3348 
13088000    267.47206   -3929.5436   -3471.1056   -3929.5436            0    1439.2525    18.056712    21.268421    22.029146    8460.0239    2647.4208    1556.8888    113.44791    757.12909   -581.65576    305.97322   -3293.5295 
13089000    226.52429   -3935.4718    -3547.217   -3935.4718            0   -1205.8232    18.118584    21.341299    22.104631    8547.2887    585.08583   -2024.4211   -2178.1342   -328.73014   -892.36877   -515.51155    -3697.527 
13090000     245.5964   -3937.7239     -3516.78   -3937.7239            0   -636.90433    18.132389    21.357559    22.121472    8566.8398   -121.43762    -892.1591   -897.11627    721.19639    83.903245    944.39193   -3596.3539 
13091000    243.45925   -3956.2284   -3538.9475   -3956.2284            0    688.22837    18.007806    21.210816    21.969481    8391.4687    1428.5434    22.561738    613.57993   -404.40991   -456.71822   -802.30386   -3454.7215 
13092000    256.25336   -3932.7856   -3493.5761   -3932.7856            0   -759.41694    18.119917    21.342868    22.106256    8549.1744   -147.09414   -1405.8767   -725.28003    575.45665   -31.429697    938.18974   -3588.2609 
13093000     248.2166   -3928.7395   -3503.3047   -3928.7395            0    1730.9587    18.015004    21.219295    21.978263    8401.5357     1484.042   -336.22762    4045.0617    1312.3662   -475.44093    122.14429   -3291.2142 
13094000    241.50999   -3934.5807   -3520.6409   -3934.5807            0     1294.691    18.132388    21.357558    22.121471    8566.8391    1370.6476    3222.5271   -709.10181    760.72461    258.52884   -10.212033   -3358.8841 
13095000    254.09823   -3964.6408   -3529.1252   -3964.6408            0    1330.4286    18.095401    21.313992    22.076346    8514.5205    1013.0771    2704.4447    273.76403   -177.67443    468.58319    422.19435   -3363.9185 
13096000    246.63458    -3909.992   -3487.2688    -3909.992            0    537.23683    18.082707     21.29904     22.06086    8496.6148    1493.8903    -1431.552    1549.3722   -36.539547   -20.820453   -376.64385   -3420.6974 
13097000    240.32389   -3914.6984   -3502.7915   -3914.6984            0    825.73969    18.113685    21.335529    22.098654    8540.3573    220.68183    922.84309    1333.6942    895.69384   -323.61163    179.47159   -3399.9437 
13098000    243.11242   -3948.6736   -3531.9872   -3948.6736            0   -297.61562    18.129318    21.353942    22.117726    8562.4882   -917.05878    308.74351   -284.53157   -80.468556   -485.25142    -672.0306    -3569.152 
13099000    250.00114   -3929.8753   -3501.3819   -3929.8753            0    33.028725    18.170271    21.402179    22.167688     8620.646    284.15816   -1472.6136    1287.5416   -610.06674    1103.7873   -88.652168   -3497.2294 
13100000     245.0741   -3946.4058   -3526.3572   -3946.4058            0    154.42828    18.102167    21.321962    22.084602    8524.0759    662.94498    39.469691   -239.12982    1260.6642   -753.25826   -144.34894   -3507.1595 
13101000    236.46829   -3944.8387   -3539.5401   -3944.8387            0    1794.4098    18.117334    21.339826    22.103105    8545.5189    1656.8151    1832.4447    1893.9694   -357.73657    -2125.693    125.42956   -3315.9071 
13102000    254.94312   -3927.3201   -3490.3563   -3927.3201            0    757.04517    18.175023    21.407777    22.173486    8627.4115    338.51439    2144.9674   -212.34634   -141.65764   -1005.7117     1055.658   -3395.1034 
13103000    267.28246   -3940.2149   -3482.1019   -3940.2149            0   -9.3830896    18.088477    21.305836    22.067899    8504.7502    1271.6353   -378.79546   -920.98915    886.27115   -1477.9235   -541.43016   -3483.2658 
13104000    247.48686   -3934.1261    -3509.942   -3934.1261            0   -540.18143    18.097346    21.316283     22.07872    8517.2674    22.741747    63.595757   -1706.8818     387.2155   -717.16742    472.16818    -3577.041 
13105000    246.75564   -3901.7792   -3478.8484   -3901.7792            0    864.72278    18.094241    21.312626    22.074932    8512.8836   -406.81323    1938.0362    1062.9454   -220.86625   -451.65818    978.35293   -3371.4916 
13106000    233.04362   -3963.8838    -3564.455   -3963.8838            0    33.044486    18.124054    21.347742    22.111304    8555.0325     214.2784   -1212.0229    1096.8779   -630.35817    1249.5607    182.35407   -3560.3322 
13107000    240.55392     -3955.93   -3543.6288     -3955.93            0    1350.7626    18.048614    21.258883    22.019267    8448.6469    1128.9989    2063.1042    860.18463    31.551978    403.14038   -312.64318   -3377.1948 
13108000    246.13946   -3926.5875   -3504.7129   -3926.5875            0   -597.59005     18.12236    21.345747    22.109237    8552.6338    146.01505    393.85726   -2332.6424    332.29893    -513.4638   -280.62016   -3579.2512 
13109000    243.83392   -3949.2435   -3531.3205   -3949.2435            0   -25.222236    18.040652    21.249505    22.009553    8437.4708    -859.9106    1679.9427   -895.69879    -158.9248    240.70575    975.51114   -3534.4241 
13110000    246.96531   -3936.3147   -3513.0246   -3936.3147            0    500.06894     18.11182    21.333331    22.096378     8537.719    1036.3395   -480.27088     944.1382    182.15957    249.32549   -1400.3413   -3450.7591 
13111000    248.59658   -3929.7952   -3503.7092   -3929.7952            0    19.099746    18.039952    21.248681    22.008699    8436.4886    2121.6714   -1140.0093   -924.36287    911.41841    272.43895    687.88401   -3501.3592 
13112000    240.16501   -3936.0557   -3524.4211   -3936.0557            0    1332.5193    18.023724    21.229566    21.988901     8413.741    1227.2301     1273.746    1496.5819   -869.12954    179.36195   -202.45124   -3360.9133 
13113000     251.2442    -3969.165    -3538.541    -3969.165            0    747.40647    18.037225    21.245469    22.005373    8432.6636   -118.77442    1652.9389    708.05494     1591.188   -61.811449    -669.9861   -3446.6236 
13114000    261.21524   -3933.7011   -3485.9871   -3933.7011            0    1295.1395     18.11755    21.340081    22.103369    8545.8257    402.66037    1307.9963    2174.7619    1054.6099   -307.43551    1497.9716   -3324.5711 
13115000    248.76031        -3925   -3498.6334        -3925            0    173.85225    18.149377    21.377569    22.142198    8590.9415    364.74739    538.43992   -381.63057    442.64265   -265.70915   -186.85681   -3476.8514 
13116000    237.50611   -3944.9933   -3537.9159   -3944.9933            0   -320.04633     18.15881    21.388679    22.153705     8604.343   -634.34183   -1185.0359     859.2387   -120.94468    634.11035   -64.618551   -3578.0771 
13117000    247.69653   -4001.0893   -3576.5459   -4001.0893            0    1060.5516    18.075979    21.291115    22.052652     8487.134    1083.7954    1470.5168    627.34244   -30.959985    311.77887   -766.93763   -3445.2749 
13118000    247.04254   -3949.1523   -3525.7298   -3949.1523            0    1378.3939    18.059342     21.27152    22.032355    8463.7215    463.03958    2623.6818    1048.4603   0.97466902    1277.7714   -1139.6309   -3355.5882 
13119000    248.89223   -3934.3107    -3507.718   -3934.3107            0    349.52483    18.201257    21.438677    22.205491    8664.8239    794.32271    1361.3151   -1107.0633   -429.02599    719.03935   -480.52511   -3463.5494 
13120000    247.24148   -3955.2429   -3531.4795   -3955.2429            0    1934.6404     18.10277    21.322672    22.085337    8524.9272    3643.6036    1424.2649    736.05273   -1288.9191   -117.88117    132.66979   -3290.9508 
13121000    246.95802   -3954.0265   -3530.7489   -3954.0265            0    586.48172     18.09558    21.314203    22.076565    8514.7737   -170.24603    1659.4304    270.26084    -633.3338   -246.56811   -262.69286   -3457.9201 
13122000    247.67182   -3912.8679   -3488.3668   -3912.8679            0    1356.4754    18.192067    21.427851    22.194279    8651.7048    1035.1805    1365.8301    1668.4156   -1073.6099   -329.04274   -223.14048   -3317.2119 
13123000    236.20658    -3954.627    -3549.777    -3954.627            0    809.43509    18.079386    21.295129    22.056809    8491.9348      858.403    1434.4652     135.4371    113.15386    1482.8843    -593.0926   -3449.5316 
13124000     264.3055   -3946.1487   -3493.1381   -3946.1487            0     904.9782    18.014926    21.219204    21.978168    8401.4273    1660.1732    1385.1672   -330.40587   -494.37478    485.25039    329.68206   -3382.2546 
13125000    253.71129   -3898.3537   -3463.5012   -3898.3537            0    35.109283    17.988617    21.188215     21.94607    8364.6717   -462.38093   -164.78091    732.48969    921.06399    788.51467   -285.18495   -3459.2182 
13126000    250.18263   -3923.1214   -3494.3169   -3923.1214            0    1417.8831    17.894585    21.077458    21.831352    8234.1831    2228.2929    2260.4978   -235.14141    418.00272    183.13319    -788.5326   -3324.0474 
13127000    248.31808   -3913.7607    -3488.152   -3913.7607            0    1296.9533    17.974501    21.171588    21.928849    8344.9955    1451.7253    2066.1119    373.02279    171.08493    2092.9844   -1139.8257   -3330.3086 
13128000    253.84637   -3932.1476   -3497.0636   -3932.1476            0    868.12366    17.967001    21.162754      21.9197    8334.5545    798.45299    917.43063    888.48737     465.7591    510.77859    402.96319   -3391.5424 
13129000    251.90305   -3899.0592    -3467.306   -3899.0592            0    2426.9271    17.990105    21.189967    21.947886    8366.7475    2455.2274    2686.6703    2138.8836     240.3304    28.659272   -733.04905   -3171.1713 
13130000    240.30031     -3943.59   -3531.7235     -3943.59            0    1056.7945    18.050107    21.260642    22.021088    8450.7435      1030.49    2054.9105    84.982951    252.94752   -11.278833   -567.38495   -3401.4784 
13131000    254.08118   -3970.3249   -3534.8385   -3970.3249            0    614.62543     17.99611    21.197041    21.955212    8375.1293    137.75166    651.26119    1054.8634   -81.066859   -242.87195    -220.2228   -3459.7665 
13132000    245.61077   -3893.3887   -3472.4202   -3893.3887            0    1577.6902    18.096863    21.315714    22.078131    8516.5853   -809.20463    1681.0328    3861.2424   -713.32043    728.72407   -529.33326   -3276.4621 
13133000    235.71468   -3927.2718   -3523.2649   -3927.2718            0   -336.15505    18.107028    21.327687    22.090532     8530.944    -1143.289   -790.76019    925.58404    9.2441134    1127.5508   -573.00084   -3565.0877 
13134000    234.03862   -3942.8979   -3541.7637   -3942.8979            0    1096.7066    18.137333    21.363382    22.127504    8573.8494    367.25543    1732.0376    1190.8267    498.28754    218.05538   -975.36963   -3404.6307 
13135000     236.8261   -3977.4067   -3571.4948   -3977.4067            0    1800.4164    18.056575    21.268261     22.02898     8459.832    1284.2114    1955.4798    2161.5579   -765.25939    480.73954    900.29295   -3349.3631 
13136000    235.36178   -3919.2022   -3515.8002   -3919.2022            0   -100.95085    18.154013     21.38303    22.147854     8597.527    542.84835   -601.88989   -243.81101   -828.97798    351.55948   -1217.2448    -3528.458 
13137000     246.0765   -3967.7747    -3546.008   -3967.7747            0     523.1468    18.142306    21.369241    22.133571    8580.9048     1649.271   -837.58778    757.75713   -217.86706   -106.70886   -792.40737   -3480.5395 
13138000    253.81156   -3942.4767   -3507.4524   -3942.4767            0   -604.03549    18.063847    21.276826    22.037851    8470.0569   -972.70843   -1427.2699    587.87183    928.09454    420.47264   -1145.5127   -3582.0671 
13139000     240.5601   -3973.7393   -3561.4275   -3973.7393            0    1936.4424    17.999432    21.200953    21.959264    8379.7673    2698.4338    959.11289    2151.7806   -162.54694    810.92762     342.6476   -3324.7743 
13140000    243.79066   -3930.8269    -3512.978   -3930.8269            0    625.83221    18.098135    21.317213    22.079683    8518.3813    1891.1021   -189.25503    175.64959   -1.2813252    1390.6444   -264.14651   -3435.2297 
13141000    236.23921   -3959.7629    -3554.857   -3959.7629            0   -219.42929    18.066467    21.279912    22.041047    8473.7428    315.70516   -471.70937   -502.28366    50.736256    -354.6536   -291.14787   -3581.9742 
13142000    244.05285   -3958.8129   -3540.5147   -3958.8129            0     1276.242    18.045066    21.254704    22.014938    8443.6655   -103.22068    2166.2983    1765.6483   -68.181585    332.67364   -145.69537   -3383.3555 
13143000    237.27323    -3933.138   -3526.4598    -3933.138            0    1075.4168    18.032056     21.23938    21.999066    8425.4151    691.22079    404.08674    2130.9427   -492.39029   -783.14069   -1275.8061   -3394.3169 
13144000     234.7851   -3916.5341   -3514.1205   -3916.5341            0    167.08987    17.974085    21.171098    21.928341     8344.416   -27.576723    304.82477    224.02157   -258.09229     1282.002   -1686.6207   -3493.7865 
13145000    258.70282   -3929.1695   -3485.7617   -3929.1695            0   -190.50317    18.021292    21.226702    21.985934    8410.3364    47.151445   -1159.6519    540.99096    719.42088    629.50874   -1846.5175   -3509.1281 
13146000    239.85143    -3949.973   -3538.8758    -3949.973            0    1087.9471    17.937648     21.12818    21.883889    8293.7719    1614.4988    1137.3358    512.00669    440.12378   -77.586946   -1975.8556   -3407.2819 
13147000    230.59426   -3955.9117   -3560.6811   -3955.9117            0    801.65948    17.920239    21.107675     21.86265    8269.6479    2276.5283    29.865196    98.584924    996.89312   -979.15197   -266.15735   -3463.9975 
13148000     238.4386   -3955.4275   -3546.7519   -3955.4275            0    1869.3306    17.899474    21.083216    21.837317    8240.9337     3338.437   -234.15746    2503.7124     1295.239   -942.70843   -252.15142   -3322.0853 
13149000    244.12341   -3904.4941   -3486.0749   -3904.4941            0    2244.5407    17.930157    21.119356    21.874749    8283.3851    1210.3181    2891.0083    2632.2958   -144.48322    284.86752   -393.99159   -3214.9239 
13150000    241.02792   -3950.5822   -3537.4686   -3950.5822            0    1253.8547    17.890716      21.0729    21.826631    8228.8421    749.62908    1245.6433    1766.2917    359.06376   -9.5826624   -753.30282   -3386.9944 
13151000    240.30506   -3890.3745   -3478.4999   -3890.3745            0    828.87647    17.935096    21.125174    21.880775    8290.2325   -562.66068    1085.0173    1964.2728   -679.42108   -841.14658    -1712.734    -3378.285 
13152000    237.13717   -3938.7758   -3532.3309   -3938.7758            0   -127.38575    17.846505    21.020825    21.772694    8167.9882    742.05021   -1979.6417    855.43422   -1239.3096   -390.58598   -1008.3479   -3547.5053 
13153000    238.08645   -3889.7371   -3481.6651   -3889.7371            0    -342.8847     17.94784    21.140185    21.896323    8307.9174   -1796.8793   -64.866003    833.09121    418.28649   -1221.9362     600.1245   -3523.2099 
13154000    238.90503   -3927.8687   -3518.3936   -3927.8687            0    3084.4939    17.889624    21.071614    21.825299    8227.3353    3298.1158     3401.303    2554.0631    457.84349   -906.59592   -1038.4268   -3148.2937 
13155000    245.88881   -3933.3457   -3511.9007   -3933.3457            0   -676.00766    17.992247    21.192491      21.9505    8369.7374   -177.62464   -644.72308   -1205.6752    358.80154    625.42055    321.93306   -3594.4169 
13156000    228.18643   -3938.4274   -3547.3237   -3938.4274            0    1406.0508    17.916171    21.102883    21.857687    8264.0173    1671.5907    1210.5978     1335.964   -1296.6946    12.866862    16.178081   -3377.8633 
13157000     233.5467    -3922.526   -3522.2349    -3922.526            0    501.11703    17.924039     21.11215    21.867285    8274.9087    964.05041   -653.78717    1193.0879   -423.57243    -498.3671   -746.50535   -3461.7596 
13158000    243.31946   -3931.9242    -3514.883   -3931.9242            0    177.44587    17.973897    21.170876    21.928112    8344.1539   -753.92215    1149.6516     136.6082    17.135437    825.72775    88.405243   -3493.2894 
13159000    246.69731   -3918.6806   -3495.8499   -3918.6806            0    723.28188    17.935647    21.125823    21.881447     8290.996    -306.7964     1618.648    857.99403    620.17085    -846.7623   -731.71522   -3408.3938 
13160000    264.08406     -3930.61    -3477.979     -3930.61            0    897.38548    18.041847    21.250913    22.011011    8439.1477   -1851.6028    1898.6999    2645.0594   -644.84531    169.25722   -150.56138   -3367.5321 
13161000    240.43974   -3939.3422   -3527.2367   -3939.3422            0    1486.0278    17.987439    21.186827    21.944634    8363.0289    2053.0398    1466.0193    939.02421    301.76812    183.99179   -302.37025   -3345.9916 
13162000    249.52854   -3949.4093    -3521.726   -3949.4093            0     1127.669    18.015507    21.219887    21.978876    8402.2388    2757.3475    902.83198   -277.17245    287.88541    250.20875   -1149.1298   -3383.5436 
13163000    247.65499   -3919.8505   -3495.3783   -3919.8505            0    882.04276    18.017839    21.222635    21.981722     8405.503    507.10429    1133.2801    1005.7439   -251.86242   -690.88664    33.964715   -3387.2525 
13164000    237.65454   -3911.6511   -3504.3194   -3911.6511            0    1012.8341    17.922868    21.110771    21.865857    8273.2867    1376.8794   -716.51755    2378.1405    307.75883    138.22658   -1123.2999   -3382.1134 
13165000     249.0445   -3941.3525   -3514.4988   -3941.3525            0    1499.8996    17.872034    21.050895    21.803839    8203.0905    1378.2868    3114.4291     6.982852     233.4998    893.59643   -374.99398   -3335.0603 
13166000    243.55677   -3916.8022   -3499.3543   -3916.8022            0    1116.8389    18.029749    21.236663    21.996252    8422.1828    1524.3272    811.15582    1015.0338   -864.57046    366.91492    328.28577   -3362.1742 
13167000    224.08298   -3925.0592   -3540.9887   -3925.0592            0    921.75695    18.007041    21.209916    21.968548    8390.3998    1002.7726    350.69303    1411.8052   -411.56475    612.02534   -53.173299   -3428.1975 
13168000    268.16285   -3924.4732   -3464.8513   -3924.4732            0    264.25663    17.962511    21.157465    21.914221    8328.3071   -1287.9549    754.08677     1326.638   -1486.8349   -1540.7721   -869.09423   -3432.7547 
13169000    256.51165   -3906.2318   -3466.5796   -3906.2318            0    419.98302     18.02525    21.231363    21.990762    8415.8783    1006.8001    675.78756   -422.63862    -360.3187   -302.99806     611.4032   -3415.0322 
13170000     246.2053   -3921.9748   -3499.9873   -3921.9748            0   -587.30505    18.082085    21.298308    22.060102    8495.7381     228.8703   -1482.5049   -508.28056   -473.42364   -653.64224   -859.30713   -3572.7554 
13171000    240.86363   -3926.1618   -3513.3298   -3926.1618            0   -400.44767    18.031271    21.238455    21.998108    8424.3151   -1431.3866    1414.7704   -1184.7268   -698.35662    304.10347    146.73241   -3562.5288 
13172000    239.64202   -3931.8545   -3521.1162   -3931.8545            0    1346.9214    18.025187    21.231289    21.990686    8415.7902    2259.2756    2508.9254   -727.43683   -609.66885    30.583436   -157.25056    -3355.801 
13173000    244.89245   -3932.1764   -3512.4392   -3932.1764            0    2165.4015    17.996386    21.197366    21.955549    8375.5147    1853.5518    1792.1408    2850.5118    120.17439   -332.02045    -31.33893   -3247.9391 
13174000    252.43298   -3963.5503   -3530.8888   -3963.5503            0    568.95575    18.111984    21.333525    22.096578    8537.9511    766.27361    1853.3536   -912.75992   -114.19284    1419.4859   -774.63775    -3460.044 
13175000    250.68669    -3918.157   -3488.4886    -3918.157            0   -588.63268    18.075595    21.290663    22.052184    8486.5933    333.33848   -1879.8898   -219.34668    122.46425    753.69625   -415.99963   -3561.3427 
13176000    248.55438   -3955.6316   -3529.6179   -3955.6316            0    876.88216    18.029611      21.2365    21.996083    8421.9885    1504.0594    276.69286    849.89423   -474.59647     805.4004    32.377964   -3421.9139 
13177000    254.30742   -3928.4324   -3492.5582   -3928.4324            0    1313.5729    18.094309    21.312706    22.075015    8512.9799    1628.3804    1839.2844    473.05377    617.33372   -238.63317     1152.517   -3329.4741 
13178000    243.87043   -3919.9329   -3501.9473   -3919.9329            0    44.806573    18.160035    21.390122      22.1552    8606.0845     238.5357     -715.848    611.73202   -230.99824    225.19958    892.29172   -3496.3236 
13179000    244.28792   -3932.8679   -3514.1668   -3932.8679            0    338.92565    18.023813    21.229671     21.98901    8413.8661    1280.1261    345.51711   -608.86625   -522.47074    631.66848    484.23249    -3472.578 
13180000    236.13614   -3930.9346   -3526.2054   -3930.9346            0   -388.28704    18.131359    21.356346    22.120216    8565.3804   -306.02778   -245.17896   -613.65438    553.23209    10.313423    998.44336   -3574.7091 
13181000    264.82431   -3959.2136   -3505.3138   -3959.2136            0    2266.3769    18.056281    21.267914    22.028621    8459.4189    3854.5196    23.201854    2921.4092   -402.24811    838.66279   -1766.9887   -3225.7065 
13182000    251.73052   -3911.1645    -3479.707   -3911.1645            0    2245.4245    18.009181    21.212436    21.971158     8393.391    2957.2676    2338.2674    1440.7385   -499.67502     286.7679    1209.5696   -3204.8468 
13183000    243.42874   -3946.2325    -3529.004   -3946.2325            0    730.52499    18.088659    21.306051    22.068122    8505.0075   -99.948324    1625.0963    666.42698   -652.38874   -67.343013   -881.34989    -3438.392 
13184000     243.7143   -3936.3934   -3518.6754   -3936.3934            0    1903.8461    18.057203    21.269001    22.029746     8460.715    2346.1599    1988.4484    1376.9301    1095.1846   -978.44188    155.79624   -3283.7582 
13185000    238.26311   -3893.9212   -3485.5464   -3893.9212            0     1869.766    18.046047    21.255859    22.016135    8445.0421    1192.3239    2406.6268    2010.3472    213.56225    1072.3865   -232.26656   -3255.2618 
13186000     259.1466   -3933.3813   -3489.2129   -3933.3813            0   -559.52081    18.237096     21.48089    22.249215    8716.1089   -369.66252    -166.1784   -1142.7215   -22.035857    126.59092   -471.66622   -3560.3367 
13187000    233.97435   -3947.3321   -3546.3081   -3947.3321            0   -1203.0356    18.210373    21.449414    22.216612    8677.8492   -818.47038   -358.03466   -2432.6019    1321.6075   -566.45744   -112.30324   -3698.5613 
13188000    263.04308   -3949.9756   -3499.1288   -3949.9756            0    1887.1178    18.069068    21.282975    22.044221    8477.4032    2711.2079    1308.4951    1641.6505    584.89605    55.346842    1015.2576   -3265.8164 
13189000    242.23752   -3974.5795   -3559.3927   -3974.5795            0    1572.5629    17.986346     21.18554      21.9433    8361.5046     787.8516    2367.8462    1561.9908   -1081.1916    287.84956    286.50053   -3367.6282 
13190000    253.93355   -3924.6263   -3489.3929   -3924.6263            0     1096.966    18.094772    21.313252     22.07558    8513.6338    782.69117    1537.1856    971.02116    -9.176902   -78.461355    1689.6176   -3353.1908 
13191000    245.51455   -3925.5247   -3504.7211   -3925.5247            0    527.28198    18.054427     21.26573    22.026359    8456.8129    326.18288    1245.0678    10.595272    925.43582    1270.1253   -228.96658   -3439.6894 
13192000    246.58341   -3938.9747   -3516.3391   -3938.9747            0     184.5907    18.126373    21.350473    22.114133    8558.3161   -113.49499    1225.4357   -558.16865   -91.473057    35.591631    2020.1417   -3493.2996 
13193000    238.71275   -3916.2757   -3507.1302   -3916.2757            0    2908.4497    18.031299    21.238488    21.998143    8424.3545    3323.5366     3905.434    1496.3784    445.46282    113.53107   -1787.0845   -3149.7965 
13194000    249.55005   -3912.7534   -3485.0331   -3912.7534            0    1822.8403    18.140832    21.367504    22.131773    8578.8131    3497.7418    943.46207     1027.317    1892.9861   -1039.8781   -359.96566   -3256.9718 
13195000    242.98098   -3920.5943   -3504.1332   -3920.5943            0    290.35091    18.084473    21.301121    22.063015    8499.1047   -499.70833    161.59211    1209.1689     1378.697   -112.71114   -293.93801    -3468.144 
13196000    255.14212   -3932.1181   -3494.8133   -3932.1181            0    715.96394    18.139487    21.365919    22.130131    8576.9044    789.32094    203.05267    1155.5182   -426.11116    948.86613   -530.19457   -3405.2566 
13197000    241.35231   -3929.6704   -3516.0008   -3929.6704            0   -205.79429    18.158456    21.388262    22.153274    8603.8402   -783.87213   -657.27434    823.76359    559.00146   -292.98255    1135.3537   -3541.8235 
13198000    239.23146   -3916.6114   -3506.5769   -3916.6114            0     1160.513    18.151842    21.380472    22.145205    8594.4425    1281.5057    451.30983    1748.7235   -921.81165     440.7007   -1818.9819   -3361.1169 
13199000    246.29736   -3913.4542   -3491.3089   -3913.4542            0    1598.9745    18.053235    21.264327    22.024905    8455.1385    2805.2191   -120.40214    2112.1067    276.53877   -782.99032   -1077.0233   -3294.1401 
13200000     256.7456   -3949.0517   -3508.9985   -3949.0517            0    343.53077    18.110553    21.331839    22.094832    8535.9273    -498.4469    1376.8541    152.18514   -155.34304    743.63544    84.438264   -3466.2332 
13201000    255.61256   -3958.1348   -3520.0236   -3958.1348            0    796.32715     18.07207    21.286512    22.047883    8481.6296    1213.6647   -543.38718     1718.704    171.01655    1262.3394   -606.82831   -3421.5212 
13202000    252.46535   -3920.5718   -3487.8548   -3920.5718            0    2107.9267    18.029583    21.236467    21.996049    8421.9494    1074.5863    3520.2792    1728.9144   -382.22613    618.53965   -701.68741   -3228.9477 
13203000    247.38103   -3971.3902   -3547.3875   -3971.3902            0    2124.6968    18.027819     21.23439    21.993897     8419.478    1734.2096    601.02319    4038.8577   -735.48155   -203.50893    411.76602   -3286.4972 
13204000    244.59106   -3977.6046   -3558.3839   -3977.6046            0   -236.96043     18.07251    21.287029     22.04842    8482.2483    214.95537     210.5673    -1136.404    483.56555     988.1619   -419.13162   -3587.6971 
13205000    240.58864   -3958.2933   -3545.9327   -3958.2933            0    270.50589    18.088081     21.30537    22.067416     8504.192    1075.7416     464.5252   -728.74917    49.865185     610.2427   -25.418097   -3512.3832 
13206000    238.78611   -3965.4891   -3556.2179   -3965.4891            0    976.54844    18.110387    21.331644     22.09463    8535.6936     534.4825    1587.4997    807.66307    217.31081    405.06857    91.880355   -3434.6529 
13207000    232.17102   -3917.8638   -3519.9306   -3917.8638            0    2193.2396    17.948624    21.141108    21.897279    8309.0053    3559.8346    1604.1847    1415.6995    641.86062   -1284.9515   -475.94917   -3254.1575 
13208000    251.25576   -3913.2094   -3482.5656   -3913.2094            0    2141.4704    17.980687    21.178874    21.936396    8353.6149    3379.4727    2066.8792    978.05928   -435.89325    145.35946   -254.26704   -3221.6726 
13209000    244.22316   -3933.5221    -3514.932   -3933.5221            0    1334.0192    18.040232    21.249011    22.009041    8436.8817     765.7269    1030.5188    2205.8119   -607.35346   -286.00052    114.32856   -3350.7899 
13210000    253.66183    -3929.215   -3494.4473    -3929.215            0    242.39946    18.113104    21.334844    22.097945    8539.5354   -613.09285    40.307617    1299.9836    1062.8845   -678.04591   -1074.8785   -3464.2588 
13211000    252.36906   -3971.1433   -3538.5914   -3971.1433            0   -301.61106    18.121682    21.344948     22.10841     8551.674    353.99748    322.64745   -1581.4781    187.26777    571.95741    31.774704   -3576.2076 
13212000    243.11627   -3942.3602   -3525.6672   -3942.3602            0   -475.11677    18.126622    21.350767    22.114437    8558.6695    -1561.128    443.06766   -307.29001     915.8448    612.57487    859.78147    -3584.971 
13213000    254.28833   -3933.3049   -3497.4634   -3933.3049            0   -117.02696    18.079883    21.295714    22.057415    8492.6341    888.16564   -209.76729   -1029.4792    878.00798   -647.92188    415.33478   -3511.9579 
13214000    243.83286   -3943.1449   -3525.2237   -3943.1449            0    1417.9962    17.964147    21.159392    21.916217    8330.5826    1687.8076    469.52779    2096.6533    1449.7963    1354.3633   -95.563763   -3352.9471 
13215000    238.37207   -3983.5589   -3574.9973   -3983.5589            0    2155.2159    18.029463    21.236325    21.995902    8421.7808    2401.5713    2721.2271    1342.8492    1280.4266    1849.5682   -1440.1347   -3310.2872 
13216000    235.96821   -3935.9126   -3531.4711   -3935.9126            0    2269.2069    17.917126    21.104008    21.858852    8265.3382    2628.0105    3395.3137    784.29661    65.406066    952.01973   -1118.4342   -3257.9376 
13217000    241.45135   -3959.2014   -3545.3621   -3959.2014            0    1112.5747    17.940173    21.131154     21.88697    8297.2751    2030.8323   -468.81931    1775.7112    617.14218   -919.63362   -417.19724   -3410.7324 
13218000    258.86089    -3930.389   -3486.7103    -3930.389            0    1465.6528    17.855371    21.031268     21.78351    8180.1674    2759.5273    441.01469    1196.4164   -249.37562    655.88192    1585.3169   -3311.8589 
13219000    256.59555   -3929.5597   -3489.7637   -3929.5597            0     1412.673    17.888682    21.070505    21.824151    8226.0367     1047.054    848.80898    2342.1561   -489.38958   -580.59351    347.05457   -3320.2877 
13220000    234.50934    -3924.454    -3522.513    -3924.454            0     2716.595    17.888466     21.07025    21.823887    8225.7382    2594.6171    2321.5632    3233.6048    35.882778   -568.76163   -1207.9215   -3196.6195 
13221000    257.11889   -3948.8816   -3508.1886   -3948.8816            0    1064.1006    17.949926    21.142642    21.898868    8310.8145    2843.4248    512.07019    -163.1933   -87.914943    391.29562   -247.81687   -3379.2146 
13222000    235.45513   -3934.6169   -3531.0549   -3934.6169            0   -121.19032    17.960477     21.15507    21.911741    8325.4788   -142.75732    668.03466    -888.8483   -80.936452   -43.194842   -102.38751   -3545.7696 
13223000    247.05649   -3966.4154   -3542.9691   -3966.4154            0    2489.6685    17.868152    21.046323    21.799104    8197.7471    1762.5697    3990.1548    1716.2809    745.09097   -797.89042   -105.78588   -3245.3149 
13224000    247.66048   -3942.2118   -3517.7302   -3942.2118            0    869.98446    18.012166    21.215952      21.9748    8397.5651    786.32758    922.36304    901.26277   -1736.6622   -78.455431    766.91592   -3411.1833 
13225000    238.51168   -3949.5347   -3540.7339   -3949.5347            0    2327.1492    17.911716    21.097635    21.852251    8257.8532     2920.324     1895.967    2165.1567   -590.92594   -600.05561    655.25767   -3260.4699 
13226000    247.17315    -3933.588   -3509.9417    -3933.588            0   -1444.0069    18.159684    21.389709    22.154772    8605.5864   -2094.8022   -1685.9528   -551.26579    852.95056     -393.411    139.64061   -3691.1698 
13227000    273.26364   -3922.6657   -3454.3011   -3922.6657            0    263.98528    18.093537    21.311797    22.074073    8511.8905    1453.9234    378.43025   -1040.3978    1061.7008    399.11723   -691.56974   -3421.5307 
13228000    248.23035   -3925.9376   -3500.4793   -3925.9376            0    1291.2998    18.028959    21.235732    21.995288    8421.0753    1240.7301    1101.5423    1531.6269   -1451.3776   -499.81774    -566.3387   -3341.8912 
13229000    264.15317   -3937.7567   -3485.0072   -3937.7567            0    1291.9997    18.070367    21.284506    22.045806    8479.2324    1127.7546    1730.0174    1018.2272    668.43571   -731.37699    1126.2316   -3325.2374 
13230000    255.24632   -3910.9378   -3473.4544   -3910.9378            0    43.274272    18.020136     21.22534    21.984524    8408.7176   -435.52115    228.06448    337.27948     -418.134   -149.78313    219.17194   -3468.1475 
13231000    256.73684    -3933.435   -3493.3969    -3933.435            0   -11.004508     18.08387     21.30041    22.062279    8498.2536    640.00312    226.19734   -899.21399   -689.64859   -469.22523    573.45121   -3494.7608 
13232000    243.12264   -3923.7451   -3507.0412   -3923.7451            0   -298.07941    18.093599     21.31187    22.074149    8511.9777   -1111.1459   -487.13051    704.03817   -364.19709   -182.66817     1.129937   -3544.0443 
13233000    245.08219   -3968.4385    -3548.376   -3968.4385            0    1114.9943    18.123182    21.346714    22.110239    8553.7969    1820.3013     2309.273   -784.59137    1433.2413    201.96737    1019.3416   -3409.2823 
13234000    240.65217   -3918.9162   -3506.4466   -3918.9162            0    1768.0753    18.065756    21.279074     22.04018    8472.7421    2324.9773     2888.322    90.926568     679.7158    50.795267    1193.6301   -3287.9722 
13235000    236.51388   -3965.8877    -3560.511   -3965.8877            0    2526.4298    18.039357     21.24798    22.007973    8435.6538    2683.9467    3824.7889    1070.5539    643.44407   -544.93926    839.24896   -3249.6961 
13236000    245.51601   -3977.8333   -3557.0273   -3977.8333            0      1648.04    18.108441    21.329352    22.092256    8532.9418    1054.5146    3127.7979     761.8076     216.5385    783.63143    567.54435   -3351.9383 
13237000    236.39087   -3933.2024   -3528.0365   -3933.2024            0    895.62589    18.148554    21.376599    22.141193    8589.7721     706.8486    1393.8269    586.20216    151.07301   -507.36216    40.963181   -3415.8387 
13238000    264.82872   -3975.4343   -3521.5269   -3975.4343            0    1903.7436    18.065726    21.279039    22.040144    8472.7005    1381.0258    1508.9133    2821.2917    899.61941   -1789.6393     1051.031   -3286.2896 
13239000    244.75754   -3950.9509   -3531.4449   -3950.9509            0     497.8633    18.061557    21.274128    22.035057    8466.8355    1213.3575   -137.58806    417.82051    243.01461    394.72307   -784.72558   -3469.9686 
13240000     244.9657   -3915.5174   -3495.6546   -3915.5174            0      2391.82    17.910473    21.096171    21.850735    8256.1344    2890.9133    1606.7394    2677.8074     785.0656   -138.38643   -563.46045   -3207.6621 
13241000    238.26433   -3951.4819    -3543.105   -3951.4819            0     3.326767    18.018955    21.223949    21.983083    8407.0651    1534.7817   -865.34011   -659.46126   -518.84694   -1110.2854     306.3985   -3542.6971 
13242000    253.62916   -3952.4232   -3517.7115   -3952.4232            0    197.07003    18.070094    21.284184    22.045472    8478.8473    923.89817    -880.2599    547.57183    104.66489     194.9491   -506.41014   -3493.3428 
13243000    251.59011   -3923.6924   -3492.4756   -3923.6924            0   -458.99477    18.092136    21.310146    22.072363    8509.9128   -265.62032   -333.54189   -777.82209    676.19056    767.02543   -813.83183   -3549.4406 
13244000    244.90655   -3931.1616   -3511.4001   -3931.1616            0    172.75904    18.016592    21.221166      21.9802     8403.758    708.23829   -1127.4691    937.50792    561.76536    120.97373   -258.31869   -3490.2268 
13245000    245.76817   -3915.9641   -3494.7259   -3915.9641            0   -446.95842    18.110273    21.331509    22.094491    8535.5318   -158.82536   -400.44466   -781.60523    716.99932    149.70665     833.5955   -3550.3642 
13246000    248.42711   -3953.6962   -3527.9007   -3953.6962            0   -4.7984631     18.05183    21.262671     22.02319    8453.1638    123.59488   -431.74964    293.75937   -639.32301    -193.5927    1130.7383   -3528.4922 
13247000    238.74753   -3931.0844   -3521.8793   -3931.0844            0    861.57546    18.018203    21.223063    21.982166    8406.0124    1108.4875    1031.8511    444.38784    310.34037   -959.05882    122.59319   -3416.2562 
13248000    242.43532   -3906.3471   -3490.8213   -3906.3471            0     1159.677    18.064309     21.27737    22.038415    8470.7074    15.543992    1777.2378    1686.2492   -215.01034    872.11758    79.527526   -3347.5587 
13249000    231.19696   -3930.7118   -3534.4481   -3930.7118            0    -685.1321    18.082643    21.298965    22.060782    8496.5248   -1644.5591   -102.65837    -308.1788     414.6642    286.57604   -1552.4146    -3619.345 
13250000    253.44631   -3926.4426   -3492.0443   -3926.4426            0    -364.7433    18.139838    21.366333     22.13056    8577.4027   -410.25047    62.056139   -746.03556    687.17525   -356.97265    14.908984    -3537.671 
Loop time of 513.592 on 64 procs for 250000 steps with 864 atoms

Performance: 84.113 ns/day, 0.285 hours/ns, 486.767 timesteps/s
99.0% CPU use with 64 MPI tasks x 1 OpenMP threads

MPI task timing breakdown:
Section |  min time  |  avg time  |  max time  |%varavg| %total
---------------------------------------------------------------
Pair    | 19.657     | 21.86      | 24.079     |  21.6 |  4.26
Bond    | 0.26004    | 0.27532    | 0.28994    |   1.0 |  0.05
Kspace  | 237.32     | 253.02     | 265.47     |  46.2 | 49.26
Neigh   | 3.9247     | 5.3347     | 6.707      |  36.8 |  1.04
Comm    | 94.147     | 108.26     | 124.81     |  86.6 | 21.08
Output  | 1.2208     | 1.2221     | 1.2271     |   0.1 |  0.24
Modify  | 110.68     | 114.79     | 120.28     |  19.3 | 22.35
Other   |            | 8.822      |            |       |  1.72

Nlocal:        13.5000 ave          21 max           8 min
Histogram: 4 2 8 20 11 7 6 1 4 1
Nghost:        1912.70 ave        1961 max        1868 min
Histogram: 5 2 6 13 7 10 10 3 6 2
Neighs:        3595.88 ave        5277 max        2220 min
Histogram: 4 6 6 11 15 7 5 4 5 1

Total # of neighbors = 230136
Ave neighs/atom = 266.36111
Ave special neighs/atom = 2.0000000
Neighbor list builds = 11761
Dangerous builds = 0

unfix		3
unfix		2
unfix		1

write_data	data.final.${pid}
write_data	data.final.0
System init for write_data ...
PPPM initialization ...
  extracting TIP4P info from pair style
  using 12-bit tables for long-range coulomb (../kspace.cpp:340)
  G vector (1/distance) = 0.37175856
  grid = 24 25 25
  stencil order = 5
  estimated absolute RMS force accuracy = 0.0032752934
  estimated relative force accuracy = 9.8634487e-06
  using double precision FFTW3
  3d grid and FFT values/proc = 2940 384
Last active /omp style is kspace_style pppm/tip4p/omp
WARNING: Not all mixed pair coeffs generated from mixing. Use write_data with 'pair ij' option to store all pair coeffs. (../write_data.cpp:312)

write_restart   restart.lmp.${pid}
write_restart   restart.lmp.0
System init for write_restart ...
PPPM initialization ...
  extracting TIP4P info from pair style
  using 12-bit tables for long-range coulomb (../kspace.cpp:340)
  G vector (1/distance) = 0.37175856
  grid = 24 25 25
  stencil order = 5
  estimated absolute RMS force accuracy = 0.0032752934
  estimated relative force accuracy = 9.8634487e-06
  using double precision FFTW3
  3d grid and FFT values/proc = 2940 384
Last active /omp style is kspace_style pppm/tip4p/omp
Total wall time: 0:08:35
