LAMMPS data file via write_data, version 30 Jul 2021, timestep = 44250000

972 atoms
2 atom types
648 bonds
1 bond types
324 angles
1 angle types

0.05171129286614473 19.948289707094986 xlo xhi
0.07892998919523642 19.9210710107832 ylo yhi
-0.023384208109776594 20.723382208100055 zlo zhi

Masses

1 1.008
2 15.999

Pair Coeffs # lj/cut/tip4p/long/omp

1 0 0
2 0.21084 3.1668

Bond Coeffs # harmonic/omp

1 450 0.9572

Angle Coeffs # harmonic/omp

1 55 104.52

Atoms # full

10 4 2 -1.1794 1.304175246586039 4.118557267232771 3.7079278112632896 0 0 0
11 4 1 0.5897 1.1280396068840048 3.320532796228018 3.2096443673801245 0 0 0
12 4 1 0.5897 2.2584486988919603 4.154452758419936 3.7741384889278358 0 0 0
33 11 1 0.5897 1.4950380976018076 2.2623139222391027 1.4521726326924977 0 0 0
31 11 2 -1.1794 0.8267337867053963 1.9690616991816794 2.0714698586039173 0 0 0
18 6 1 0.5897 4.072629978266753 3.1610697769358667 3.359235307252375 0 0 0
4 2 2 -1.1794 4.118743504651283 1.3764103752877845 3.3873513757842684 0 0 0
16 6 2 -1.1794 4.024114384726136 4.078504644817899 3.627867754783192 0 0 0
23 8 1 0.5897 2.705085626860178 1.0589594889629053 4.427943348880818 0 0 0
5 2 1 0.5897 4.10496878525585 0.7420867325047301 2.6707472820943776 0 0 0
17 6 1 0.5897 4.312806901957056 4.569452830459298 2.858654585221174 0 0 0
102 34 1 0.5897 0.2518346769767069 0.8611452415189487 5.014175370181005 1 0 0
22 8 2 -1.1794 2.065846606906859 0.9070626509371984 5.123947742551862 0 0 0
6 2 1 0.5897 4.817913253714421 1.0705184864952382 3.9650750053974932 0 0 0
236 79 1 0.5897 0.7726518815628104 0.1518447290856647 1.8856943566372453 0 1 0
19 7 2 -1.1794 0.915957522540424 6.103729874120328 1.8556609022233113 0 0 0
15 5 1 0.5897 4.560982049485216 6.5732544227911 2.071078579577046 0 0 0
20 7 1 0.5897 1.0640579638942151 5.429947799994923 2.519117774455927 0 0 0
113 38 1 0.5897 4.854231035884107 7.602359266449463 3.9526088760186147 0 0 0
3 1 1 0.5897 3.54684037644289 2.6500830294424205 0.4108829796530108 0 0 0
110 37 1 0.5897 2.039642922302841 9.113626983813088 0.757586946281352 0 0 0
111 37 1 0.5897 3.4879033231698457 9.195633573523287 0.3241771845158514 0 0 0
674 225 1 0.5897 1.9902749263302986 5.786580581463372 0.5424253589102649 0 0 1
114 38 1 0.5897 3.3607925590557337 7.7833897477417695 3.7824485127505345 0 0 0
139 47 2 -1.1794 0.8559171618269837 8.822596599454096 2.089514690502612 0 0 0
14 5 1 0.5897 4.292480009186953 5.678331645333916 0.8800707967766388 0 0 0
112 38 2 -1.1794 4.193837830324881 7.89412213961822 3.324189813666023 0 0 0
141 47 1 0.5897 1.049436380402911 7.912565527924762 2.3144706401070914 0 0 0
13 5 2 -1.1794 4.863860363691927 5.773003084626349 1.642074740191832 0 0 0
140 47 1 0.5897 1.103988609781982 9.320371669604533 2.868448071668514 0 0 0
126 42 1 0.5897 4.324581055582157 9.728403336158971 3.441702311809236 0 0 0
130 44 2 -1.1794 1.9197618731294885 7.630021036668908 4.882375640736726 0 0 0
132 44 1 0.5897 0.9646431584965507 7.601233292915963 4.939227641154079 0 0 0
1 1 2 -1.1794 2.640277516061143 2.7953364669098195 0.14008911013984546 0 0 0
109 37 2 -1.1794 2.5933697561107265 9.29459587402581 -0.0018390861819865406 0 0 0
325 109 2 -1.1794 2.768887550556856 2.734669420480036 6.99601866540403 0 0 0
326 109 1 0.5897 2.550543400618723 2.138072677647543 6.280140040776706 0 0 0
327 109 1 0.5897 3.682001269339821 2.5362474747541737 7.203729694577308 0 0 0
355 119 2 -1.1794 0.8859975091794635 2.0622944329579918 8.901509509235654 0 0 0
356 119 1 0.5897 1.5707593571329936 2.2971600558732885 8.275332702240839 0 0 0
27 9 1 0.5897 2.692702791604416 4.54297338661258 6.539302113866762 0 0 0
329 110 1 0.5897 4.256407156477024 0.7277733932217212 9.505997368528899 0 0 0
342 114 1 0.5897 4.146504670503628 4.6538754855463464 9.901108957587866 0 0 0
328 110 2 -1.1794 4.0911456250670915 1.4459784021082533 10.116728171612243 0 0 0
561 187 1 0.5897 0.9493413196323045 0.22790801829847954 8.870753857458856 0 1 0
335 112 1 0.5897 1.0123923042615586 3.454353196753804 10.091317467496173 0 0 0
438 146 1 0.5897 4.078795811961167 8.932149617189534 9.964831961756557 0 0 0
25 9 2 -1.1794 2.669010638797254 5.499680336050421 6.55861835950403 0 0 0
464 155 1 0.5897 1.4118219502033988 8.816058229646911 8.274846077712914 0 0 0
344 115 1 0.5897 0.8807146220298852 5.452900712382857 9.223161383539662 0 0 0
337 113 2 -1.1794 4.4952302275304845 5.88305422110638 8.6054492912844 0 0 0
435 145 1 0.5897 2.3079882001700516 8.774871226818444 6.201578893389853 0 0 0
433 145 2 -1.1794 2.5901696054504897 9.195603110329271 7.0136109894756435 0 0 0
345 115 1 0.5897 0.8293986318141823 6.876159229016677 8.709834189117268 0 0 0
437 146 1 0.5897 4.248186970470855 7.4846431102805315 9.555124685146442 0 0 0
339 113 1 0.5897 3.9865311534110566 5.7041153751391676 7.814707101957237 0 0 0
463 155 2 -1.1794 0.7606310689330924 8.642590701388771 8.954548210265063 0 0 0
468 156 1 0.5897 4.341131649137811 9.177633167747071 7.216387767372451 0 0 0
26 9 1 0.5897 1.9933429609254272 5.710038261917563 7.203108903844433 0 0 0
131 44 1 0.5897 2.213471223194184 6.876117972563749 5.393769205053129 0 0 0
343 115 2 -1.1794 0.7609282252852859 5.965311506753697 8.42370480960594 0 0 0
341 114 1 0.5897 3.967921288821373 3.2037649386602096 10.29749673085774 0 0 0
357 119 1 0.5897 0.06683350383124229 2.2452010224587604 8.441371561551067 0 0 0
443 148 1 0.5897 0.9995749323365166 9.970128312517646 10.144949290215786 0 0 0
436 146 2 -1.1794 4.156643404742636 8.048081907093323 10.323374207970268 0 0 0
24 8 1 0.5897 2.3487006815332476 0.09044029270933152 5.535416505155133 0 0 0
649 217 2 -1.1794 2.7454689320677885 2.5348394182745513 13.958161074114988 0 0 0
650 217 1 0.5897 2.482005451119928 1.9824489538472172 13.222275162522227 0 0 0
651 217 1 0.5897 2.0958900091169443 2.354921300906145 14.637725003104746 0 0 0
348 116 1 0.5897 2.4693775291769833 1.0410273931401206 11.131286388212725 0 0 0
346 116 2 -1.1794 2.0258656710674434 0.7947690204271196 11.94289645884463 0 0 0
350 117 1 0.5897 2.5707765951384336 4.371283070348501 13.618872357154183 0 0 0
347 116 1 0.5897 1.095864858677118 0.9250470405449833 11.757355857421686 0 0 0
683 228 1 0.5897 4.494641380606536 2.5496015034706496 14.403825873748413 0 0 0
336 112 1 0.5897 2.117369330332785 4.274152262422159 10.722846313310262 0 0 0
330 110 1 0.5897 4.6669393177572225 1.2661976340326733 10.859857024381713 0 0 0
334 112 2 -1.1794 1.171704388766794 4.264951357900995 10.574741982468895 0 0 0
340 114 2 -1.1794 3.8900977496170714 4.09595931743523 10.635318560360345 0 0 0
792 264 1 0.5897 4.614210903337098 9.029170059395971 14.18437709455848 0 0 0
661 221 2 -1.1794 4.681301905930087 5.8007605798213 15.388719051692625 0 0 0
349 117 2 -1.1794 2.5748029030035102 5.327794257387052 13.654850930847918 0 0 0
757 253 2 -1.1794 2.7074938602202114 9.275337009153068 14.119587749408959 0 0 0
533 178 1 0.5897 0.32313551294838205 7.527665703105636 11.910990073699699 1 0 0
351 117 1 0.5897 3.3311160308222574 5.544253327121691 14.200133096788939 0 0 0
759 253 1 0.5897 2.5101514466269212 8.712856519807112 13.370761553540731 0 0 0
668 223 1 0.5897 1.128290933253759 5.620469116711094 14.79572132357057 0 0 0
455 152 1 0.5897 2.822704698073239 7.6307900348179425 11.444850296393687 0 0 0
456 152 1 0.5897 2.4003847779202943 6.702385746877246 12.563439840666822 0 0 0
454 152 2 -1.1794 2.1519959322673676 7.511965870002132 12.117285755880575 0 0 0
789 263 1 0.5897 1.5378897345282174 8.856293234439393 15.263157210606888 0 0 0
680 227 1 0.5897 0.05191013342430711 2.3423005170952855 15.423503804507943 0 0 0
667 223 2 -1.1794 0.4946708715131116 5.879530709031766 15.464712975876468 0 0 0
653 218 1 0.5897 3.4237332660412605 1.094711586855945 17.62081961155694 0 0 0
652 218 2 -1.1794 4.297753473818944 1.2777029829178594 17.27604845814738 0 0 0
664 222 2 -1.1794 4.052179023337676 4.020190548349771 17.44620688074145 0 0 0
671 224 1 0.5897 2.1346779770771365 1.7563077931238404 19.48060079723473 0 0 0
666 222 1 0.5897 4.204473403812811 3.0815716538915816 17.33655514008381 0 0 0
670 224 2 -1.1794 1.9644837735145972 1.090532498228778 18.81435902408529 0 0 0
665 222 1 0.5897 3.1005212863639637 4.103386917297055 17.50734769319427 0 0 0
681 227 1 0.5897 0.9884655144419899 2.7764855812040428 16.53072704319139 0 0 0
672 224 1 0.5897 1.0099942393700467 1.0310893273630901 18.772784090415378 0 0 0
658 220 2 -1.1794 1.3040362381386703 4.309120366041484 17.55735833820821 0 0 0
659 220 1 0.5897 0.7050864680198876 4.3818743895483 18.300368200240364 0 0 0
654 218 1 0.5897 4.423851648890669 0.6279008976384954 16.58471939850638 0 0 0
679 227 2 -1.1794 0.8815280992403323 2.117597646721151 15.844782564399761 0 0 0
660 220 1 0.5897 0.9881625136346469 4.959415362157586 16.930093200097716 0 0 0
2 1 1 0.5897 2.597972141405373 3.7292041067927344 20.68115756859077 0 0 -1
884 295 1 0.5897 0.8533816305766591 0.295093894783887 15.862014256556673 0 1 0
778 260 2 -1.1794 2.142624329052315 7.449649162404194 18.69113573808815 0 0 0
760 254 2 -1.1794 4.270642031807277 8.009970466682384 16.995129706858762 0 0 0
761 254 1 0.5897 4.213112281809755 8.965100323713356 17.02046136106206 0 0 0
788 263 1 0.5897 1.0015850758501057 9.272203858318704 16.616219561006417 0 0 0
669 223 1 0.5897 0.7172132633857288 6.788276583552839 15.666880443479629 0 0 0
779 260 1 0.5897 2.289106320968402 8.09690649797927 19.380836062146884 0 0 0
675 225 1 0.5897 2.5019235514184817 6.096914502087956 19.898777753366858 0 0 0
663 221 1 0.5897 4.51660345123389 6.6580593195182445 15.781258524570847 0 0 0
787 263 2 -1.1794 0.8659591399329576 8.64075937405255 15.909843770907424 0 0 0
858 286 1 0.5897 0.3843290199904941 7.479453217974333 18.61988172882141 1 0 0
780 260 1 0.5897 2.7654531093513666 7.68626311598696 18.00395037429444 0 0 0
662 221 1 0.5897 4.42460026301238 5.173823842229359 16.064843508356148 0 0 0
673 225 2 -1.1794 2.6484825528175127 5.519295003641635 20.647737457265706 0 0 0
762 254 1 0.5897 4.873890652181549 7.786991462379115 17.70399422738827 0 0 0
120 40 1 0.5897 1.3056172486410664 11.444548304765087 3.1838013073828115 0 0 0
129 43 1 0.5897 0.9138746576016497 13.44905906729272 2.0955673202150344 0 0 0
118 40 2 -1.1794 1.4997386551504195 10.806859044141087 3.8706522772749627 0 0 0
119 40 1 0.5897 2.4552652077950214 10.750945921709837 3.883154084102659 0 0 0
240 80 1 0.5897 2.533137940643117 14.087427129865656 4.347215130387202 0 0 0
127 43 2 -1.1794 0.8045493363345105 12.53869420621503 1.8208186630001795 0 0 0
123 41 1 0.5897 4.2572142643805195 12.361602439767891 0.8615643789164507 0 0 0
222 74 1 0.5897 4.266378630532886 13.950031251526294 2.490746322732468 0 0 0
124 42 2 -1.1794 4.232962786901109 10.667848085657182 3.6006598555815987 0 0 0
783 261 1 0.5897 1.9601002007445991 12.274995258734874 0.5571864714108533 0 0 1
220 74 2 -1.1794 3.993133501863211 14.368432994511648 3.3070299876631863 0 0 0
122 41 1 0.5897 4.703452018647282 11.68011836757033 2.137451068719408 0 0 0
238 80 2 -1.1794 1.833537041387549 14.009802226518145 4.995818557164615 0 0 0
125 42 1 0.5897 4.81901308756755 10.84499898817168 4.336365228908736 0 0 0
219 73 1 0.5897 3.3836033171588995 15.807612576689557 0.0405944652928031 0 0 0
232 78 2 -1.1794 4.165007677671336 17.129690112072595 3.540729428676506 0 0 0
221 74 1 0.5897 4.074844677731926 15.306491565407338 3.1350231292184394 0 0 0
233 78 1 0.5897 4.306554828686285 17.73602722468658 2.813821474960935 0 0 0
235 79 2 -1.1794 0.6816626814875955 19.056118800751563 1.7173599521358833 0 0 0
227 76 1 0.5897 1.1994511186808026 18.039790830750803 3.1449843157497726 0 0 0
234 78 1 0.5897 3.246344689763807 17.252341921395434 3.780115284538655 0 0 0
249 83 1 0.5897 1.5324755030338728 15.54185917967069 1.3764186041249082 0 0 0
230 77 1 0.5897 3.8477414697384873 19.000925610662527 0.8331234761999411 0 0 0
229 77 2 -1.1794 4.354047959964965 19.096494505552663 1.6397019785962927 0 0 0
247 83 2 -1.1794 0.984714852876483 15.277025606175643 2.1152822054564266 0 0 0
248 83 1 0.5897 1.1112095292644846 15.966567757516076 2.766923181982233 0 0 0
890 297 1 0.5897 1.7439938248512648 18.856212042242085 0.32409711397164886 0 0 1
226 76 2 -1.1794 1.4421604705021651 17.39767694000173 3.8119818321856815 0 0 0
228 76 1 0.5897 0.7825581869646504 17.502945064198954 4.4975260872585725 0 0 0
121 41 2 -1.1794 4.933045263169329 12.390706984533347 1.5387228336274894 0 0 0
317 106 1 0.5897 0.06881908591612623 13.868091614646142 4.977953922004878 1 0 0
133 45 2 -1.1794 2.420829046810618 11.939655181014272 6.855271501346543 0 0 0
134 45 1 0.5897 1.7872706615533953 12.2007493524439 7.5235247331911985 0 0 0
135 45 1 0.5897 3.270277522207187 12.18915842429281 7.219199790687605 0 0 0
453 151 1 0.5897 0.8205874871678102 12.017768834268184 9.55303593569651 0 0 0
451 151 2 -1.1794 0.68047479798899 12.676913149277102 8.873335233068428 0 0 0
450 150 1 0.5897 4.133681760106128 11.42300378458038 9.558433699000576 0 0 0
446 149 1 0.5897 4.508594547490189 13.330096110753928 8.873817841427227 0 0 0
573 191 1 0.5897 0.7630585165087088 14.4989489116103 9.155003378100616 0 0 0
445 149 2 -1.1794 4.6410768351542515 12.601726217222193 8.267148783897253 0 0 0
239 80 1 0.5897 2.077237338330142 13.247944070119999 5.521492751495279 0 0 0
559 187 2 -1.1794 0.7832391261465195 19.133050200544638 8.76746994837429 0 0 0
572 191 1 0.5897 0.8709550836594022 15.869826100672878 9.788103055644132 0 0 0
571 191 2 -1.1794 0.7467960906236201 15.4328332017285 8.945701682016175 0 0 0
434 145 1 0.5897 2.468702974849864 10.131512540111657 6.853841255321401 0 0 0
553 185 2 -1.1794 4.543282328773147 18.993622461055146 8.71483143219146 0 0 0
243 81 1 0.5897 1.8777602908541193 18.668017885851754 7.371847022906681 0 0 0
555 185 1 0.5897 4.063900917255678 18.849872345075077 7.898996452255627 0 0 0
241 81 2 -1.1794 2.60239403553578 18.510754849216724 6.766581118491823 0 0 0
558 186 1 0.5897 4.168911179458488 17.834005627896985 10.099403196509282 0 0 0
543 181 1 0.5897 2.277965166861874 15.217591389347431 6.245958030504256 0 0 0
541 181 2 -1.1794 2.6005246353469693 15.754720250172394 6.96951314359625 0 0 0
576 192 1 0.5897 4.3878454923072825 15.587138945925078 7.289025206526355 0 0 0
542 181 1 0.5897 1.9461938396556435 15.645574605133426 7.659491512872273 0 0 0
242 81 1 0.5897 2.652131028533348 17.55759338872236 6.694272023281016 0 0 0
544 182 2 -1.1794 4.242389186378317 14.520440312261293 10.243972871169136 0 0 0
551 184 1 0.5897 1.0997315994953314 18.0066544675038 10.179370925076057 0 0 0
448 150 2 -1.1794 3.875743017294005 10.826694384549508 10.261265784949483 0 0 0
457 153 2 -1.1794 2.51502215377329 11.995955282323827 13.510033867368817 0 0 0
458 153 1 0.5897 1.831756231769304 12.164902282284302 14.158684664928689 0 0 0
459 153 1 0.5897 3.3351962896906833 12.138726192869184 13.982429829459976 0 0 0
562 188 2 -1.1794 2.014426377355024 14.042804708593929 11.744122172392647 0 0 0
563 188 1 0.5897 2.1693008448070032 13.261987599741886 12.275615684776687 0 0 0
449 150 1 0.5897 4.5179086767502294 10.98058680488907 10.954127083959323 0 0 0
442 148 2 -1.1794 1.1680979987327493 10.733393977484251 10.697363280447705 0 0 0
444 148 1 0.5897 2.120212050104584 10.83171129145248 10.68694323897151 0 0 0
769 257 2 -1.1794 4.577937502490417 12.49516078549538 15.187712194764128 0 0 0
545 182 1 0.5897 3.4585837658884575 14.24796811438629 10.721075784480671 0 0 0
865 289 2 -1.1794 2.8005174501800667 15.832630013998653 13.691014591230608 0 0 0
896 299 1 0.5897 0.20701400432762895 15.473501905704518 15.301934962207197 0 0 0
546 182 1 0.5897 4.963996439578272 14.346254618842083 10.848219884428119 0 0 0
564 188 1 0.5897 2.253846650327959 14.773010581700026 12.314744644026614 0 0 0
758 253 1 0.5897 2.5761123093186864 10.165279661507537 13.792584442976246 0 0 0
552 184 1 0.5897 2.1851786135645654 17.271960043684558 10.936897248434832 0 0 0
567 189 1 0.5897 2.488077429309859 19.118951391112745 12.98223768461246 0 0 0
550 184 2 -1.1794 1.2349263222466298 17.37575463898923 10.886311775688004 0 0 0
556 186 2 -1.1794 3.9518859083322577 17.231566983239425 10.81077647075057 0 0 0
866 289 1 0.5897 3.725470764638458 15.800119821369332 13.935341466033643 0 0 0
867 289 1 0.5897 2.331468373890884 15.620527806714072 14.497897764584113 0 0 0
566 189 1 0.5897 2.6543015846449336 17.71762257420834 13.53036288144873 0 0 0
885 295 1 0.5897 1.3729396949171069 18.96799826642748 15.05290453264452 0 0 0
565 189 2 -1.1794 2.6474980605123175 18.63774253996789 13.794063044565922 0 0 0
879 293 1 0.5897 4.125953179617 18.93932461982589 14.791908718042123 0 0 0
557 186 1 0.5897 4.0841600068313015 16.360572495104115 10.436531778561042 0 0 0
877 293 2 -1.1794 4.756063089954238 19.011282788136405 15.508773638698894 0 0 0
642 214 1 0.5897 0.26480581512182155 14.183414211867246 11.85151233787646 1 0 0
768 256 1 0.5897 1.1616293760817098 11.455075153205996 17.03000486546403 0 0 0
888 296 1 0.5897 2.296949371558753 13.247308702572782 19.327473990181637 0 0 0
766 256 2 -1.1794 1.2703793631756204 10.744095308111977 17.6615042693158 0 0 0
773 258 1 0.5897 3.084027639640659 10.795533426519937 17.43136235257321 0 0 0
886 296 2 -1.1794 2.0766309503875675 13.995821511869718 18.773100275913762 0 0 0
774 258 1 0.5897 4.187343652348463 11.310802039405166 16.531942216632004 0 0 0
772 258 2 -1.1794 4.0296285401841265 10.748452246854608 17.290198324314055 0 0 0
869 290 1 0.5897 3.348530742722113 14.265682696479379 17.503182346031068 0 0 0
767 256 1 0.5897 0.5991967005833991 10.907069348996838 18.324141315701418 0 0 0
868 290 2 -1.1794 4.1244723650202655 14.48038970173149 16.98547529890243 0 0 0
887 296 1 0.5897 2.1493687612466776 14.753774891123252 19.353049858225326 0 0 0
965 322 1 0.5897 0.2739222121028956 14.138669353824833 18.904586397799655 1 0 0
782 261 1 0.5897 2.617698458681259 11.119120361485297 20.580577342025492 0 0 0
781 261 2 -1.1794 2.6518282699654594 12.071073543550883 20.674605300216506 0 0 0
870 290 1 0.5897 4.853842426177317 14.395533143962146 17.59946949209293 0 0 0
891 297 1 0.5897 2.221532497026394 19.360567019275187 19.725885897597614 0 0 0
771 257 1 0.5897 4.398882378510535 13.285860045604752 15.696520225306378 0 0 0
880 294 2 -1.1794 3.91533494170983 17.13116781051506 17.36344380391202 0 0 0
878 293 1 0.5897 4.515652256522586 18.3072631550731 16.111006161088348 0 0 0
875 292 1 0.5897 0.5246519187502681 17.464106925182264 18.406060552894296 0 0 0
218 73 1 0.5897 2.3934924184965647 16.897558934577745 20.435763716254165 0 0 -1
777 259 1 0.5897 0.9394838526902857 13.441348485280471 15.742740256262474 0 0 0
876 292 1 0.5897 1.0126598492719041 18.009800242298 17.08112236101266 0 0 0
881 294 1 0.5897 2.9878639226007464 17.2169199530529 17.58419985288132 0 0 0
882 294 1 0.5897 4.025223543412148 16.205986898287087 17.143950672570703 0 0 0
897 299 1 0.5897 1.0062687549570712 15.90499695639158 16.51293815022398 0 0 0
874 292 2 -1.1794 1.1931218440034166 17.33322064817284 17.733635960073393 0 0 0
889 297 2 -1.1794 2.384560023417402 18.682318612399996 20.381250331298453 0 0 0
895 299 2 -1.1794 1.0102339699826315 15.28222249139503 15.786157102955908 0 0 0
217 73 2 -1.1794 2.45056579790562 15.964631174167192 20.64215671661337 0 0 -1
775 259 2 -1.1794 0.8424479734996538 12.50068819548496 15.5945471278304 0 0 0
883 295 2 -1.1794 0.7726292059677743 19.188393012675945 15.765057465424137 0 0 0
711 237 1 0.5897 8.756347199741947 5.758825890339724 0.6054744697049947 0 0 1
53 18 1 0.5897 9.929401029807913 4.223482858691566 3.700648168584301 0 0 0
273 91 1 0.5897 7.295782337757471 0.37166435413252463 1.8731261554752985 0 1 0
47 16 1 0.5897 7.823971734821161 3.461373780974805 3.3664309889564543 0 0 0
34 12 2 -1.1794 5.312614856077078 2.512177252442611 0.5135488357889988 0 0 0
69 23 1 0.5897 6.663993387170044 2.386752336974391 1.5960046803214505 0 0 0
48 16 1 0.5897 7.437947044289372 4.31385813058474 4.556277433322347 0 0 0
67 23 2 -1.1794 7.482065368422291 2.199356381871445 2.0562950718819706 0 0 0
46 16 2 -1.1794 8.08127353247303 4.245775977550491 3.850856530866446 0 0 0
68 23 1 0.5897 8.167655112059906 2.4041523027001266 1.4205424893461458 0 0 0
58 20 2 -1.1794 8.802339219300313 0.915347746394828 4.950001507141224 0 0 0
138 46 1 0.5897 6.983006947166472 7.353204813386052 5.048157309669724 0 0 0
9 3 1 0.5897 5.22414946794615 4.348354043783432 4.929670445438553 0 0 0
175 59 2 -1.1794 7.592394449338514 8.930843970144553 2.0850005810156667 0 0 0
57 19 1 0.5897 7.767743089386476 5.52587969105952 2.60670110589083 0 0 0
177 59 1 0.5897 8.282249533849196 9.168588117088152 1.4655461925103683 0 0 0
56 19 1 0.5897 6.648607585927696 5.99863612289127 1.7034806814340981 0 0 0
176 59 1 0.5897 7.700461668837595 7.988636204817524 2.214534027756157 0 0 0
166 56 2 -1.1794 8.811056765553122 7.472221977639827 4.88624198602194 0 0 0
55 19 2 -1.1794 7.574209850426653 6.142434668695547 1.9006612138264587 0 0 0
142 48 2 -1.1794 5.368795474694811 9.183335237862396 0.3975774893936966 0 0 0
143 48 1 0.5897 6.100947418798665 9.14866426941294 1.013138238125442 0 0 0
29 10 1 0.5897 6.966038601859596 0.7941389085387518 4.959170079968354 0 0 0
145 49 2 -1.1794 9.333116949723834 9.496306642081333 0.00033471369566216366 0 0 0
37 13 2 -1.1794 9.31491048766656 2.7955528983110933 0.15352290057304957 0 0 0
36 12 1 0.5897 5.507401137229928 3.285086137114404 -0.016372925386669124 0 0 0
391 131 2 -1.1794 7.581629044107761 2.0518053845357125 8.975684335843141 0 0 0
380 127 1 0.5897 7.324242098992436 6.6263515696947195 8.676752115020406 0 0 0
59 20 1 0.5897 8.97437729686064 1.5648891867866075 5.6316119922775245 0 0 0
360 120 1 0.5897 5.695901804814391 1.6909856448685274 6.5513932778011 0 0 0
359 120 1 0.5897 6.088337015152979 2.246541077271302 7.903695535364899 0 0 0
8 3 1 0.5897 5.779333130449597 3.8643474657972257 6.252137851731278 0 0 0
392 131 1 0.5897 8.22776132356327 2.3087757224489653 8.317948232317065 0 0 0
393 131 1 0.5897 7.52884178568626 1.0990014542349058 8.900849490636341 0 0 0
358 120 2 -1.1794 5.460558447275383 2.363313350086794 7.190690842768266 0 0 0
7 3 2 -1.1794 5.869915627651269 4.5619453204359965 5.603095198556221 0 0 0
362 121 1 0.5897 9.262022611000578 3.5971040515829196 6.773136069697276 0 0 0
361 121 2 -1.1794 9.395781151631372 2.667087422420754 6.955871652105592 0 0 0
137 46 1 0.5897 5.9356401126058085 6.355944187090668 5.495841786901075 0 0 0
381 127 1 0.5897 7.510064092593382 5.220255379707344 9.206058223782671 0 0 0
167 56 1 0.5897 8.961133951956443 6.640875763212455 5.336239862742236 0 0 0
500 167 1 0.5897 7.516017178483508 9.093366571143326 9.527055908596436 0 0 0
467 156 1 0.5897 5.507714710212095 8.4726450537396 6.557629642142003 0 0 0
470 157 1 0.5897 8.66500679180242 9.073139188166497 7.584593533471477 0 0 0
168 56 1 0.5897 9.003824571873945 8.13975242340774 5.544528727110004 0 0 0
469 157 2 -1.1794 9.180881570851788 9.379329625444882 6.838796676584787 0 0 0
62 21 1 0.5897 8.504543704927734 5.521357725079713 7.197769175034586 0 0 0
499 167 2 -1.1794 7.396645926166449 8.439527826672633 8.838336916609434 0 0 0
61 21 2 -1.1794 9.215729409709027 5.381639915821548 6.57258487571293 0 0 0
466 156 2 -1.1794 5.297860225225843 9.151825386978096 7.198554318179193 0 0 0
501 167 1 0.5897 6.608214641903237 8.721064455853144 8.37429206112194 0 0 0
338 113 1 0.5897 5.402958172448053 5.720122540471306 8.34899669433356 0 0 0
379 127 2 -1.1794 7.248098111348573 5.706226375931831 8.424226998915527 0 0 0
371 124 1 0.5897 7.8540312257345075 3.3503244726134627 10.285995570730936 0 0 0
136 46 2 -1.1794 6.060534765583447 7.283237835267471 5.294002363262543 0 0 0
28 10 2 -1.1794 6.060355578340295 0.617125339814874 5.213513757188126 0 0 0
370 124 2 -1.1794 7.991978188378078 4.21534485400616 10.67186215168178 0 0 0
332 111 1 0.5897 5.173812506176248 4.368634161525274 11.830092288759376 0 0 0
682 228 2 -1.1794 5.443948003233691 2.6708074256808447 14.382890760776402 0 0 0
685 229 2 -1.1794 9.086712062951666 2.897266372246505 13.832423812803643 0 0 0
386 129 1 0.5897 8.95800938263248 4.686149099237368 13.890217081702266 0 0 0
331 111 2 -1.1794 5.910014116614601 4.51855710963127 12.423141724176833 0 0 0
372 124 1 0.5897 7.274026034191492 4.316567544981083 11.296721369240199 0 0 0
382 128 2 -1.1794 8.54560145752556 0.9111469135163018 11.99205484450422 0 0 0
684 228 1 0.5897 5.579805979080884 3.3969421936252213 13.77429202715754 0 0 0
354 118 1 0.5897 5.638236232845847 1.4338755723162795 12.95875915316467 0 0 0
384 128 1 0.5897 9.216516193553447 0.9803279209957393 11.312918532447082 0 0 0
353 118 1 0.5897 6.697798203252805 0.9745471879408071 11.979956009547102 0 0 0
686 229 1 0.5897 8.657599128206654 2.6392579851159454 14.64811021153171 0 0 0
383 128 1 0.5897 8.739217811824178 1.6292406521829355 12.594531384751678 0 0 0
352 118 2 -1.1794 5.774115315347511 0.8611057620751534 12.20408307257263 0 0 0
385 129 2 -1.1794 8.979868011552298 5.604345036774398 14.159734637326823 0 0 0
460 154 2 -1.1794 6.244848053435702 7.284147266063013 12.01390322103734 0 0 0
793 265 2 -1.1794 9.277297259890071 9.281754677077645 14.302289131211316 0 0 0
377 126 1 0.5897 9.813164531566372 4.127176494443216 10.517749525181673 0 0 0
462 154 1 0.5897 5.621094311967747 7.539319463562591 11.334233540205576 0 0 0
492 164 1 0.5897 8.13107931206373 7.448931890718206 11.876189399340168 0 0 0
491 164 1 0.5897 9.568415417119803 7.586295316112886 11.420979199685993 0 0 0
490 164 2 -1.1794 9.030464811027711 7.466000246408666 12.203422511796104 0 0 0
794 265 1 0.5897 9.113637730614904 8.719401122340159 13.54529608243185 0 0 0
461 154 1 0.5897 6.03289082634487 7.847844290219633 12.757803453979204 0 0 0
791 264 1 0.5897 5.9972327383342385 9.004896051964781 14.799689020235135 0 0 0
790 264 2 -1.1794 5.543813258738715 9.065454714880843 13.958982886522568 0 0 0
387 129 1 0.5897 8.987311133025846 6.095525657785976 13.338321814728667 0 0 0
333 111 1 0.5897 5.98510124621606 5.471314622585034 12.47640931938641 0 0 0
824 275 1 0.5897 8.045568153534344 8.96974321638572 15.479139972859938 0 0 0
710 237 1 0.5897 9.296066209084177 4.591542290438756 20.55357001502486 0 0 0
785 262 1 0.5897 5.816661021533939 6.39307493625279 19.367280997434527 0 0 0
702 234 1 0.5897 9.75401196256752 4.082954791430621 17.817724366292055 0 0 0
38 13 1 0.5897 9.102420338879057 2.2774987118526466 20.12406549428119 0 0 -1
694 232 2 -1.1794 7.994088345050153 4.101134510903959 17.973543490382134 0 0 0
677 226 1 0.5897 5.424631669904807 0.8166053173182962 18.63837812701854 0 0 0
695 232 1 0.5897 7.8778050577785645 3.3321345139362055 17.41564251809551 0 0 0
708 236 1 0.5897 7.771584939265944 1.0029023744672874 18.89949501315276 0 0 0
715 239 2 -1.1794 7.5999063771295985 2.2119046540843725 16.043468480050187 0 0 0
655 219 2 -1.1794 5.747557063228036 4.620329580997768 19.50486444258692 0 0 0
657 219 1 0.5897 6.561456628203787 4.335004736062332 19.089660736064673 0 0 0
706 236 2 -1.1794 8.725283985054071 0.9301930304875257 18.860986812892513 0 0 0
716 239 1 0.5897 7.632035809709238 1.2581135728516082 16.11745359745823 0 0 0
676 226 2 -1.1794 6.0125917311402315 0.6103673443502625 19.364930263988285 0 0 0
35 12 1 0.5897 5.580653456084851 1.7730494593348833 20.714428044057783 0 0 -1
696 232 1 0.5897 7.7776525074771055 4.842695441268466 17.408407878159508 0 0 0
144 48 1 0.5897 5.5550566119333995 8.49047924034206 20.510808656152363 0 0 -1
704 235 1 0.5897 6.419477800785338 5.925470087735253 15.948911356328628 0 0 0
816 272 1 0.5897 8.824239022218915 8.316613082171026 19.444165047247573 0 0 0
703 235 2 -1.1794 7.294945116444146 6.127724931731091 16.278937729219578 0 0 0
815 272 1 0.5897 8.892267123903348 6.805753115732192 19.37677262247165 0 0 0
823 275 2 -1.1794 7.33106700504951 8.84292053780703 16.10329471079887 0 0 0
825 275 1 0.5897 7.346605198158616 7.906016656247881 16.298694498858104 0 0 0
814 272 2 -1.1794 8.667832746835463 7.577317284003392 18.856707767333383 0 0 0
784 262 2 -1.1794 5.905318205040165 7.319508173786589 19.143511825036946 0 0 0
786 262 1 0.5897 6.841727956063572 7.4396611790277705 18.98541509252386 0 0 0
707 236 1 0.5897 8.931773208520065 0.18215448704096424 19.421288061792502 0 0 0
656 219 1 0.5897 5.068641723564699 4.432056349157181 18.85696678017559 0 0 0
709 237 2 -1.1794 9.33653410758398 5.545464343166291 20.6215120044482 0 0 0
705 235 1 0.5897 7.880122199046836 5.919308062656707 15.550764040785479 0 0 0
717 239 1 0.5897 6.759869488768475 2.3916945568320753 15.621270256003221 0 0 0
246 82 1 0.5897 5.328077310849402 14.167183346619465 4.4364996068570886 0 0 0
271 91 2 -1.1794 7.091426569359797 19.331165676021094 1.5642781224722246 0 0 0
276 92 1 0.5897 9.224016626524776 14.083455632587297 4.431051900146705 0 0 0
154 52 2 -1.1794 8.217342200650222 10.7883252930122 4.049672853464661 0 0 0
819 273 1 0.5897 8.57131674265914 12.406024466548507 0.5562295573716517 0 0 1
156 52 1 0.5897 9.17198469080856 10.844589562487645 4.007201227448897 0 0 0
163 55 2 -1.1794 7.592770761427715 12.716337732735838 2.14947685131239 0 0 0
165 55 1 0.5897 7.76762325850223 12.0924523425089 2.853948294013952 0 0 0
285 95 1 0.5897 7.607977791427549 14.5719308161349 2.138201840653463 0 0 0
164 55 1 0.5897 6.67317511268937 12.573606275288737 1.9252797467767568 0 0 0
284 95 1 0.5897 7.598571561783747 16.025835081650825 2.5599803846213214 0 0 0
231 77 1 0.5897 5.265669550007839 19.124280568046792 1.349097787971321 0 0 0
262 88 2 -1.1794 7.903773638319127 17.5652785427965 3.532176969972846 0 0 0
272 91 1 0.5897 7.363799268174703 18.75727140202195 2.280198853613519 0 0 0
224 75 1 0.5897 5.395691153849981 17.44641280592093 4.889096415670402 0 0 0
283 95 2 -1.1794 7.47762755649608 15.457590444094128 1.7993683172272514 0 0 0
927 309 1 0.5897 8.360169973244748 18.896922787187002 0.4355766683717029 0 0 1
250 84 2 -1.1794 5.1491183761219945 15.486509808564776 0.24914033135508318 0 0 0
264 88 1 0.5897 8.841074265794134 17.539460613268524 3.724792433205552 0 0 0
254 85 1 0.5897 8.704731607046819 15.88252307027458 0.5197161278978476 0 0 0
251 84 1 0.5897 5.863257505959194 15.499215424406882 0.8863186690965995 0 0 0