LAMMPS data file via write_data, version 30 Jul 2021, timestep = 10000000

864 atoms
2 atom types
576 bonds
1 bond types
288 angles
1 angle types

0.6809074568071622 17.526664943180595 xlo xhi
1.8935503136017022 21.735627486396375 ylo yhi
0.8307055068871882 21.382490293114543 zlo zhi

Masses

1 1.00794
2 15.9994

Pair Coeffs # lj/cut/tip4p/long/omp

1 0 0
2 0.21084 3.1668

Bond Coeffs # harmonic/omp

1 450 0.9572

Angle Coeffs # harmonic/omp

1 55 104.52

Atoms # full

473 1 1 0.5897 3.0200413404927233 2.749412996758143 4.607869182213948 3 2 -3
49 1 2 -1.1794 3.4442309940299762 3.3730302679409325 1.2513667497982524 5 7 3
203 1 1 0.5897 1.3816792061089944 5.23767357993415 3.0603305884392604 -7 -3 2
204 1 1 0.5897 1.3974632715385253 3.9835928890721184 3.908147370861921 -7 -3 2
13 1 2 -1.1794 4.710125947544542 2.830145292961261 4.379831391580005 4 -8 -9
614 1 1 0.5897 3.1257564440964773 4.982556170009216 2.6320089043903963 -6 -3 3
51 1 1 0.5897 2.759156514899923 3.9321973263392342 0.8850661662826027 5 7 3
613 1 2 -1.1794 3.3078107489474267 5.824510506646536 3.049313272505964 -6 -3 4
472 1 2 -1.1794 2.0914983859279572 2.769120702043172 4.839394604134955 3 2 -3
202 1 2 -1.1794 0.8202622502533017 4.683091878612316 3.602017424794532 -7 -3 2
450 1 1 0.5897 3.235650664561815 5.924861114894498 4.911837504358831 10 -3 -5
615 1 1 0.5897 3.067501586619936 6.4758632259994435 2.390378139276255 -6 -3 4
448 1 2 -1.1794 3.103354605668793 5.985106970386567 5.857963082065969 10 -3 -5
474 1 1 0.5897 2.078380348118743 3.047118621755743 5.755209892826049 3 2 -3
14 1 1 0.5897 4.668310994808964 3.7864203707985693 4.3768964346548245 4 -8 -9
84 1 1 0.5897 2.068552809455005 1.9495801408942057 2.1421286667058146 -4 -1 -4
54 1 1 0.5897 1.203344472391544 6.309813652241817 6.2369112329243555 -2 -1 3
19 1 2 -1.1794 1.9247027993751946 2.2483721444628286 11.032246085714785 -4 2 1
832 1 2 -1.1794 2.4984721421558227 5.358378787964922 9.548056764738563 4 -1 -1
834 1 1 0.5897 2.476440476142151 4.773711018935362 8.790525594957863 4 -1 -1
675 1 1 0.5897 4.27674065474832 5.136036731079598 7.0773350089645275 -4 -3 0
704 1 1 0.5897 3.700725510414623 3.9747955315323136 10.742408028567954 -1 0 -3
833 1 1 0.5897 1.5799979932715646 5.4657321225282125 9.795139687400813 4 -1 -1
79 1 2 -1.1794 1.7619304392574844 2.9885058218581575 7.741650146435904 -2 2 -6
81 1 1 0.5897 0.9180010024089191 2.6966049649401276 8.086338360834974 -2 2 -6
80 1 1 0.5897 2.3429058037358184 2.237336257453629 7.861594583184409 -2 2 -6
21 1 1 0.5897 1.6043973823288984 2.0876544754283373 10.14469252948708 -4 2 1
207 1 1 0.5897 1.6394157203593438 5.848841239343665 12.218425079170524 -4 2 0
627 1 1 0.5897 1.5188045090222604 6.005848764104754 15.644245098586781 0 -1 0
625 1 2 -1.1794 0.7505580583309676 5.781345901185897 15.11929740959081 0 -1 0
755 1 1 0.5897 4.289426032984303 2.6988678339122836 12.635043236645263 -1 0 -8
391 1 2 -1.1794 0.7653636905822696 4.257297284740676 12.721867409954436 4 0 -1
596 1 1 0.5897 1.8181929105810233 2.9356780324427123 15.051267598986533 3 -6 -1
508 1 2 -1.1794 3.9634918109209267 5.044403656111812 14.679562478722039 1 1 3
754 1 2 -1.1794 4.295914342732647 2.088561588878367 13.372379648215306 -1 0 -8
509 1 1 0.5897 3.9624892069452793 4.093215874085834 14.572720956646048 1 1 3
510 1 1 0.5897 4.4665990150329025 5.369244420233921 13.932871218210382 1 1 3
392 1 1 0.5897 0.9317880055558007 3.697600145927417 11.963427813524886 4 0 -1
595 1 2 -1.1794 2.2179713060867083 2.101234527298979 15.296322411321192 2 -6 -1
626 1 1 0.5897 1.1094239830086086 5.4900639681431205 14.281120101038205 0 -1 0
703 1 2 -1.1794 4.5290146042011905 4.128294031955214 11.196877888178417 -1 0 -3
138 1 1 0.5897 4.0757852243676425 6.511339121911384 12.406798268154764 5 -8 5
205 1 2 -1.1794 2.167310024646624 6.647241426114979 12.211102971992812 -4 2 0
597 1 1 0.5897 2.8475435033069223 1.9224724820981423 14.597852225151037 2 -6 -1
550 1 2 -1.1794 3.641719184386278 6.3314245923675 19.800714370135967 -1 13 -6
250 1 2 -1.1794 3.6599881829167584 2.898716754557701 17.81337763643492 4 -3 -3
611 1 1 0.5897 2.824713434581758 4.740882633942279 17.42182879013239 5 2 2
610 1 2 -1.1794 2.6083784663741065 5.673105455579197 17.40361033776215 5 2 2
757 1 2 -1.1794 1.4018599428764476 4.7828889354739035 21.00362863056778 2 3 5
252 1 1 0.5897 3.262309294589889 2.5639511440297156 18.617088788837727 4 -3 -3
759 1 1 0.5897 1.6923733899792122 5.584146063410556 20.568002471354504 2 3 5
552 1 1 0.5897 3.3959602854759185 6.171685918260774 18.889526165682405 -1 13 -6
251 1 1 0.5897 3.5233132289990747 2.2031308890611294 17.170222763278822 4 -3 -3
551 1 1 0.5897 4.1344367192292015 5.551730797970311 20.056593797516857 -1 13 -6
239 1 1 0.5897 1.1809633070496732 6.209938701918438 18.47057850284609 -5 -6 0
612 1 1 0.5897 3.388190590212591 6.093382659105474 17.041066038069776 5 2 2
758 1 1 0.5897 0.7295066957658181 4.424870722686945 20.42402465151568 2 3 5
50 1 1 0.5897 3.494251401870999 2.6297840737614586 21.20210389570506 5 7 2
326 1 1 0.5897 2.24947060361653 11.264052163419139 5.231138463730259 3 -3 -2
143 1 1 0.5897 1.9689244235450152 10.98199590995553 2.668138879765614 -6 3 4
48 1 1 0.5897 3.286939853183189 9.080126885499816 4.457990867649638 1 -1 0
46 1 2 -1.1794 4.13320502940473 8.643951235773866 4.556753362945493 1 -1 0
191 1 1 0.5897 4.0442105174618685 9.753761313495247 1.8350062331541972 2 5 -5
166 1 2 -1.1794 2.1462437019916445 7.670361139435398 1.4612736027161 1 -1 8
142 1 2 -1.1794 1.08102855878339 11.305445304413343 2.820420574122234 -6 3 4
190 1 2 -1.1794 3.7656949345211643 10.538665688596604 2.3067308059549587 2 5 -5
168 1 1 0.5897 1.6367530762538465 8.456286363269623 1.6585339935534469 1 -1 8
192 1 1 0.5897 4.564753662129936 10.867284405714178 2.7186588963919864 2 5 -5
728 1 1 0.5897 0.9194949827872664 9.412466800913954 4.724766090529489 0 1 1
47 1 1 0.5897 4.763815213866111 9.25432016720709 4.174707342899515 1 -1 0
727 1 2 -1.1794 1.5684662539698597 9.53530353200614 5.417560648826809 0 1 1
28 1 2 -1.1794 4.737727218226059 8.386236307672483 10.130317983341344 -8 0 4
769 1 2 -1.1794 3.1221000214259287 8.184443304306212 7.409965315528448 3 -5 -1
771 1 1 0.5897 2.7726895869928185 8.448627184162822 8.261029240658448 3 -5 -1
29 1 1 0.5897 3.7835811458297224 8.332836042706106 10.075839329566127 -8 0 4
455 1 1 0.5897 1.7413570327879475 7.577289895608976 10.210760882954244 6 -4 0
770 1 1 0.5897 2.6622326794834015 8.738494609914135 6.779245451742964 3 -5 -1
454 1 2 -1.1794 1.9524670445480021 8.498012564055916 10.056237037604198 6 -4 0
98 1 1 0.5897 2.807021387808478 10.65824532022401 9.49335065387448 0 -6 5
729 1 1 0.5897 1.0760570409519696 9.9212721016062 6.141954548436758 0 1 1
99 1 1 0.5897 3.4604046654311493 11.173797316455216 8.228734085255283 0 -6 5
456 1 1 0.5897 2.0071282594939506 8.881837207517682 10.931373136260214 6 -4 0
97 1 2 -1.1794 2.6419785946466963 11.203644701454536 8.72425950853735 0 -6 5
116 1 1 0.5897 0.7512267801292899 10.678236139119491 8.184078823688385 0 0 7
449 1 1 0.5897 3.378009014290819 6.874114561566322 6.082492960824743 10 -3 -5
506 1 1 0.5897 2.4602527553752687 10.27680347652579 12.63965210294338 5 2 3
379 1 2 -1.1794 1.0237129271420091 8.831379739142399 13.548122770057308 11 -1 -1
505 1 2 -1.1794 2.6781149854189366 10.58533651842675 11.760153274165162 5 2 3
846 1 1 0.5897 4.5775531485535295 9.863087331004492 12.043087839109388 1 -2 6
206 1 1 0.5897 1.6835941716415725 7.259851142720667 12.765084975324523 -4 2 0
261 1 1 0.5897 1.989474583207015 10.80253466876543 15.26621559736107 1 -1 6
380 1 1 0.5897 1.7488014399767409 8.536527110662998 14.099022188971322 11 -1 -1
507 1 1 0.5897 2.454443332274167 11.515949567531148 11.77004295667364 5 2 3
840 1 1 0.5897 4.713277224067938 11.184578661665766 15.288932169106047 -3 -4 -1
100 1 2 -1.1794 3.0351391327326636 8.234245539477312 15.109805573491984 3 -3 -3
101 1 1 0.5897 3.8792820645214294 8.042665886220387 14.701210987507835 3 -3 -3
259 1 2 -1.1794 1.0940500022965443 10.6493672439725 15.56792349510437 1 -1 6
102 1 1 0.5897 3.2107795055608457 8.978007174045903 15.686128020855932 3 -3 -3
347 1 1 0.5897 1.2666162867496613 9.18212456224418 18.122486397229547 -6 2 -2
348 1 1 0.5897 2.566082327873467 9.654800928646482 18.738689245404732 -6 2 -2
208 1 2 -1.1794 4.058659748830637 10.151845945491933 17.893395912879416 4 -1 1
603 1 1 0.5897 3.094526520433367 11.330879294752982 21.1192722343615 1 5 3
346 1 2 -1.1794 1.728591894315324 9.246682867843564 18.958296423535618 -6 2 -2
209 1 1 0.5897 4.678306713137417 10.400639142198136 17.207606208247462 4 -1 1
167 1 1 0.5897 2.505745110773371 7.8301603675948055 21.14046979957817 1 -1 7
210 1 1 0.5897 3.9075564032093952 10.95926895982131 18.384728008175827 4 -1 1
594 1 1 0.5897 4.5343513678242715 7.837536944441854 20.624547216114717 -3 -3 -2
592 1 2 -1.1794 4.703965618619142 8.600510654194034 21.17710060435135 -3 -3 -2
149 1 1 0.5897 3.468794321120653 15.203022488009015 5.7421293904258395 -3 -2 3
268 1 2 -1.1794 1.0043766303277606 14.598627175802086 1.4608254761045512 1 3 7
441 1 1 0.5897 2.378149729325724 14.151083320435216 2.392286880961329 1 -3 -4
401 1 1 0.5897 4.035730676644474 16.480067935743705 0.9554038847359656 -1 -2 3
150 1 1 0.5897 3.7623908726424786 14.804021760574125 4.311624750323096 -3 -2 3
439 1 2 -1.1794 3.0095441862403685 13.798162162509184 3.019159904697622 1 -3 -4
440 1 1 0.5897 2.5246277326090754 13.123180364799408 3.4939697998564414 1 -3 -4
148 1 2 -1.1794 3.9784502809487954 15.460427619098116 4.973909776612276 -3 -2 3
263 1 1 0.5897 2.6363053806501187 16.550488401113682 4.243399422621142 -3 0 6
325 1 2 -1.1794 2.656951911735497 12.126818993899798 5.307359199083558 3 -3 -2
327 1 1 0.5897 3.4636991398931123 11.968748132854401 5.797628964360829 3 -3 -2
270 1 1 0.5897 0.7708675167263834 15.51673326371931 1.59765888922361 1 3 7
684 1 1 0.5897 2.7491065534121186 12.827008081026372 9.325722036510884 6 -4 -7
836 1 1 0.5897 4.704505102582815 14.31002022809623 9.969644345705825 -3 1 -3
683 1 1 0.5897 2.174056649774477 14.091965421377264 9.926574400760973 6 -4 -7
241 1 2 -1.1794 2.0819685361310505 14.372826383346162 6.796727607158399 -2 0 3
682 1 2 -1.1794 2.910704087952049 13.766756234487136 9.409099933749415 6 -4 -7
243 1 1 0.5897 2.135831171125639 13.561850762393023 6.291170122343029 -2 0 3
242 1 1 0.5897 2.3077985725475245 14.114056435191456 7.6901968950659025 -2 0 3
422 1 1 0.5897 2.1133147843954894 16.453417122715656 10.81482585354567 -3 -1 3
222 1 1 0.5897 3.339965283641412 16.497243361172174 8.674317628505023 -1 -4 4
220 1 2 -1.1794 4.18761417983355 16.495169209096005 8.229657326056088 -1 -4 4
541 1 2 -1.1794 2.0597566212239533 15.189144277883676 12.138560131341688 -5 3 5
267 1 1 0.5897 1.4420449948292866 13.619023031285732 12.48184814113326 -3 -5 2
808 1 2 -1.1794 1.9483338545437747 15.701096815584915 15.028854236239336 1 1 -1
543 1 1 0.5897 1.4364477948679792 15.747351774158723 12.603418356691641 -5 3 5
215 1 1 0.5897 3.6666961440372794 12.467361844459937 14.068506379424722 6 -3 -1
810 1 1 0.5897 2.853562500283417 15.877007143028669 14.77231861274089 1 1 -1
216 1 1 0.5897 3.2607708192274014 12.28012188425592 15.514847006750104 6 -3 -1
809 1 1 0.5897 1.4213932672530887 16.217086756652176 14.418701408981887 1 1 -1
217 1 2 -1.1794 4.44186408620477 15.935557383455096 13.692943687600927 5 -5 -4
542 1 1 0.5897 2.906217818879538 15.390642512207162 12.537431068559512 -5 3 5
265 1 2 -1.1794 1.065165495824172 12.748139146806647 12.60714058214183 -3 -5 2
266 1 1 0.5897 0.8430263679595997 12.71437389738895 13.537567574241699 -3 -5 2
447 1 1 0.5897 1.230750729660501 14.076711818873052 15.265111524640123 5 -7 -2
199 1 2 -1.1794 4.753122453714956 12.907627730717662 12.537463191650403 -2 -3 2
218 1 1 0.5897 4.724474409646331 16.55808538559185 14.362850891150625 5 -5 -4
214 1 2 -1.1794 3.236004054213803 11.850252834453915 14.659989149154844 6 -3 -1
389 1 1 0.5897 4.177019160402182 13.559149119059143 16.72210714984503 7 7 4
539 1 1 0.5897 4.832649800918183 16.110455531250647 18.440286752827408 -5 0 1
388 1 2 -1.1794 3.4698840309066736 13.033871428115726 17.096554295355727 7 7 5
403 1 2 -1.1794 2.21364378566024 14.272063288814623 19.65251609416541 5 0 4
405 1 1 0.5897 2.3551028988934375 13.383408043219726 19.978793129968064 5 0 4
390 1 1 0.5897 3.4126036838034057 13.322895433885945 18.0072544385078 7 7 5
269 1 1 0.5897 1.5396058744768024 14.602844340069964 21.219066137434922 1 3 6
404 1 1 0.5897 1.4561797473267488 14.196876346399574 19.072173013754565 5 0 4
538 1 2 -1.1794 4.180931764046285 16.311982337190305 17.768847945629652 -5 0 1
602 1 1 0.5897 3.95346062654806 12.229305129650118 20.255057269186416 1 5 2
540 1 1 0.5897 3.3395385256788503 16.221556698330794 18.21623554960367 -5 0 1
601 1 2 -1.1794 3.08391444221922 11.832166483268809 20.30393556411091 1 5 3
82 1 2 -1.1794 1.672271640309518 20.982188324316162 2.4644476086345932 -4 -2 -4
83 1 1 0.5897 0.8254089655554624 21.253885426461736 2.818243449498099 -4 -2 -4
254 1 1 0.5897 2.797368956980586 19.844198834087223 3.4875380210930986 1 3 -6
253 1 2 -1.1794 3.2670716835451903 19.43347762918166 4.213389214802201 1 3 -6
255 1 1 0.5897 2.7709973817416613 18.63641088458899 4.399841905590854 1 3 -6
105 1 1 0.5897 0.9925638585674079 20.135966958438857 1.0157291238908104 1 0 10
402 1 1 0.5897 3.6765965098032307 17.861591421804516 1.4595585536467026 -1 -2 3
264 1 1 0.5897 2.041057571338506 17.124419260999286 2.9753211912794097 -3 0 6
400 1 2 -1.1794 3.30345645074994 17.09194999751039 1.0299144240457998 -1 -2 3
667 1 2 -1.1794 4.781568356870826 19.600311876021607 1.2890925514307683 -10 -1 2
262 1 2 -1.1794 1.8500437921503834 16.97593644086843 3.901410724375357 -3 0 6
156 1 1 0.5897 0.7092002352107153 21.07780583254972 4.917604125786973 7 0 -1
23 1 1 0.5897 3.6347500955855954 19.388977613443387 5.929434099678973 -1 5 3
694 1 2 -1.1794 0.7948994107649151 20.13064263176163 9.220744683280692 1 -6 -1
695 1 1 0.5897 0.7208806369387915 19.625935387322095 8.41082392779598 1 -6 -1
354 1 1 0.5897 3.963959779138361 20.347134040859693 7.879161206285051 0 1 -2
423 1 1 0.5897 2.223026239640949 17.93794794898617 10.539313619764071 -3 -1 3
24 1 1 0.5897 4.402759528969382 18.2186300863359 6.505860729939752 -1 5 3
421 1 2 -1.1794 1.968417772654606 17.109467751074177 10.133045226255334 -3 -1 3
698 1 1 0.5897 2.1374743146055244 18.801817025297872 6.9759444553450365 0 5 -4
22 1 2 -1.1794 3.8238870832134544 18.93969953444848 6.753191474341792 -1 5 3
352 1 2 -1.1794 4.180648547481651 21.185771587044577 8.286483223737203 0 1 -2
319 1 2 -1.1794 3.3104690316456327 19.56085296640154 10.739567811524779 -1 -5 1
321 1 1 0.5897 2.934073686997317 20.43772752434878 10.664567043584073 -1 -5 1
221 1 1 0.5897 4.711253893449922 17.13772989707583 8.708342121317525 -1 -4 4
353 1 1 0.5897 4.767507896417599 20.95784160057152 9.007520700911323 0 1 -2
697 1 2 -1.1794 1.2027668705645378 18.64539180112304 6.84157174085804 0 5 -4
699 1 1 0.5897 1.05947095203609 17.75586599561626 7.164701186611751 0 5 -4
324 1 1 0.5897 3.9674490807717193 18.737414192402248 14.145409751400356 10 1 -3
692 1 1 0.5897 0.7397889877020154 19.40613386983331 12.689387514204075 4 -4 2
693 1 1 0.5897 1.6144903707817106 20.343003194605792 13.49497386083366 4 -4 2
320 1 1 0.5897 3.3285452570842757 19.387148478730296 11.68068791544667 -1 -5 1
20 1 1 0.5897 1.4661211102316087 21.447429959209757 11.572986081001481 -4 1 0
783 1 1 0.5897 4.722844127324741 19.772459159984685 15.889529425021797 -7 0 -1
691 1 2 -1.1794 0.8897437391463147 20.33411752402266 12.869800468786968 4 -4 2
322 1 2 -1.1794 3.498798952539559 19.291454079796786 13.521244267935474 10 1 -3
323 1 1 0.5897 4.025873631771049 20.088457558281213 13.464948436838107 10 1 -3
619 1 2 -1.1794 0.8908957662641129 17.666359617200204 13.300197743412173 -1 2 2
86 1 1 0.5897 2.27918688666166 18.332821117866914 19.035034850865234 -4 3 2
668 1 1 0.5897 4.396438062050494 19.67426901370755 20.96772149391395 -10 -1 0
177 1 1 0.5897 4.29666399875906 19.822469690563757 18.0094578831279 2 -6 7
85 1 2 -1.1794 1.8499722040387845 17.527980597295084 19.32519634760268 -4 3 2
504 1 1 0.5897 2.0655204888916616 20.398857316473624 16.63982075326735 -8 1 0
525 1 1 0.5897 1.6585195179108183 20.951160801304866 20.036886579956832 4 0 3
175 1 2 -1.1794 4.377610331944756 19.4262081784672 18.877012945230373 2 -6 7
524 1 1 0.5897 3.0444726091348455 20.75115760365314 19.461664016419007 4 0 3
502 1 2 -1.1794 1.6999456751069861 19.845868530560182 17.330274068977502 -8 1 0
503 1 1 0.5897 1.1917309157791984 19.182941981701 16.862926227864396 -8 1 0
523 1 2 -1.1794 2.5162480428379563 21.370025196919777 19.96579832238035 4 0 3
87 1 1 0.5897 2.272635206396803 17.31735964216244 20.15778582799126 -4 3 2
35 1 1 0.5897 4.796035754096001 17.414721702395912 16.28173805813325 -2 0 -2
249 1 1 0.5897 6.7518192114893445 4.590472491059543 4.861001150242576 3 1 -2
622 1 2 -1.1794 6.524348886186717 2.1722714897345083 2.42037608430754 5 -2 2
670 1 2 -1.1794 8.436287954927597 5.597917386480525 2.672720424869862 5 2 -1
623 1 1 0.5897 6.932424385776629 2.528441015175217 1.6312078913491201 5 -2 2
165 1 1 0.5897 8.52927875880005 4.365528086599215 4.22604883071313 -1 5 -2
671 1 1 0.5897 7.788741583394228 6.207803620463406 2.3192915117930673 5 2 -1
731 1 1 0.5897 8.186449796620531 4.060378982113789 1.4750981772198903 1 2 -3
247 1 2 -1.1794 5.991125913516928 5.170304160672943 4.897474301340345 3 1 -2
163 1 2 -1.1794 8.260147269807629 3.8428349320587216 4.981393643576516 -1 5 -2
164 1 1 0.5897 8.726163382566275 4.2324355625435715 5.721134880802427 -1 5 -2
500 1 1 0.5897 7.003243213472353 6.400875466443699 5.361595846262861 -4 -2 -6
248 1 1 0.5897 5.630630591929849 5.038322222564162 5.774326005407255 3 1 -2
15 1 1 0.5897 5.21035906684192 2.6093897819055165 3.594176289664399 4 -8 -9
471 1 1 0.5897 5.693951798861548 2.407155612441792 5.824024438526661 3 -8 4
732 1 1 0.5897 8.883206061975407 2.7575066446548893 1.145048363002509 1 2 -3
298 1 2 -1.1794 8.646327363083339 5.3781340615898765 7.815163362476724 -6 -1 3
371 1 1 0.5897 6.8359222585536985 2.8568538256768448 8.072439753517928 -1 6 0
372 1 1 0.5897 7.661927818103078 4.076174531552413 8.422804603005297 -1 6 0
717 1 1 0.5897 5.808834360103754 5.534756963924276 9.11165607981355 8 -9 -7
370 1 2 -1.1794 7.308604666411377 3.2685553847550257 8.795794076883936 -1 6 0
715 1 2 -1.1794 6.095435193530169 6.013288539846316 9.88950090577544 8 -9 -7
12 1 1 0.5897 8.212426808124992 3.7849522068968593 10.40974593932892 -3 1 5
716 1 1 0.5897 5.731274133249185 5.518405511255147 10.623441733209086 8 -9 -7
791 1 1 0.5897 8.68086118397542 1.9994257196688743 8.502321111386712 4 7 -4
299 1 1 0.5897 8.456136130254581 6.0949096069485975 7.2099716631890285 -6 -1 3
673 1 2 -1.1794 5.074665573489812 4.844224044380492 7.518186472330884 -4 -3 0
469 1 2 -1.1794 6.0843055182795975 2.1277162635389253 6.652103076048454 3 -8 4
705 1 1 0.5897 5.086348614983845 3.395899224237892 10.933905906371129 -1 0 -3
674 1 1 0.5897 5.005540645939226 3.889652781619635 7.532467289299359 -4 -3 0
711 1 1 0.5897 6.570936576894529 2.1082965919177283 10.243290795929731 -4 -5 -2
863 1 1 0.5897 6.412081136972495 3.2692356441935777 15.606306613817203 6 2 2
560 1 1 0.5897 6.2006419883151995 5.5810907688434614 13.145878609931108 -1 3 3
10 1 2 -1.1794 8.310661352123017 3.7519675231592666 11.36129652540327 -3 1 5
561 1 1 0.5897 7.2720014490462015 4.786018111936135 12.430459500907716 -1 3 3
862 1 2 -1.1794 6.584322246844064 2.855672490459937 14.760447282380248 6 2 2
864 1 1 0.5897 6.764393091487021 3.5859817606436892 14.168491374704526 6 2 2
559 1 2 -1.1794 6.993172124732161 5.067504967152249 13.30178275856507 -1 3 3
605 1 1 0.5897 8.178762926151423 5.651434596901106 14.343184113030807 -4 2 -4
604 1 2 -1.1794 8.708862301181345 6.181370692571166 14.938479965469236 -4 2 -4
756 1 1 0.5897 5.176975879030461 2.164134456086031 13.738703640919423 -1 0 -8
136 1 2 -1.1794 4.930626261884871 6.78867460447885 12.73627344442499 5 -8 5
719 1 1 0.5897 8.780423628551443 2.188034920246965 11.667959408762659 -1 2 1
141 1 1 0.5897 8.171430322508115 1.9484639943532613 14.739873078332622 -3 1 2
226 1 2 -1.1794 6.056140080971466 3.961411514222307 17.10684255529894 3 -5 1
730 1 2 -1.1794 8.46630021908492 3.5171336154552533 21.29015632651007 1 2 -4
724 1 2 -1.1794 5.416635124343488 6.679676987042835 17.434586918042957 6 -3 4
442 1 2 -1.1794 8.515326674918144 5.765045570935368 17.866913283204845 0 6 0
726 1 1 0.5897 5.727761496416612 5.774771638369573 17.411886285384092 6 -3 4
804 1 1 0.5897 6.1902189526989035 3.868641592258081 20.427050651407818 7 -3 -8
443 1 1 0.5897 8.023343952006336 6.055711419655733 17.099026190539885 0 6 0
227 1 1 0.5897 6.741101310258299 3.3742553471273258 17.426627450339335 3 -5 1
803 1 1 0.5897 4.955043524572732 4.139030274617109 21.259517562306637 7 -3 -8
735 1 1 0.5897 6.6945207371921285 6.296697103101977 20.274352550784055 2 -1 -5
345 1 1 0.5897 8.877192050205046 4.0062095535080475 17.990718370584432 -2 6 -1
343 1 2 -1.1794 8.86563675940191 3.0587801567985156 17.85495944592513 -2 6 -1
802 1 2 -1.1794 5.614044110830861 4.574922241852072 20.71922447468889 7 -3 -8
734 1 1 0.5897 7.700184140664442 6.681281502335995 19.210176169066468 2 -1 -5
228 1 1 0.5897 5.246643293779666 3.6103237324800315 17.47785374735052 3 -5 1
608 1 1 0.5897 7.609682318750305 8.651807374299754 1.8732711296017395 4 7 3
499 1 2 -1.1794 7.4655624055509815 7.1449360800163095 5.747350219732392 -4 -2 -6
772 1 2 -1.1794 5.839820617508888 10.82733147136141 4.176087342357521 4 -1 3
515 1 1 0.5897 8.895397131952834 11.534213035350655 1.8705222771278536 -1 -7 -2
787 1 2 -1.1794 8.168767195738281 9.364797035959302 4.001051726978112 4 1 11
427 1 2 -1.1794 6.154600521934943 7.305211492700415 2.5015615430882288 0 4 -2
428 1 1 0.5897 5.508194888733277 7.768635134828334 1.9690164917377047 0 4 -2
522 1 1 0.5897 8.853658490409655 9.983154529733941 5.703560171864125 -4 -1 -1
789 1 1 0.5897 8.024200987349534 8.544542264093995 4.472700105772418 4 1 11
774 1 1 0.5897 6.71095721916149 10.477411806625948 3.9894220775891065 4 -1 3
788 1 1 0.5897 9.028721859273642 9.259328322806256 3.594199781535688 4 1 11
607 1 2 -1.1794 8.062375067497006 8.694826572936869 1.0310110029188786 4 7 3
773 1 1 0.5897 5.752318247497366 10.758776089635731 5.126782028769643 4 -1 3
514 1 2 -1.1794 8.344985743168952 11.42967342615494 1.0944485243591489 -1 -7 -2
516 1 1 0.5897 8.31444723414978 10.484350790598908 0.9474678880542435 -1 -7 -2
429 1 1 0.5897 5.647456530262381 6.928492873925069 3.2206541053902487 0 4 -2
16 1 2 -1.1794 7.781407333138232 7.978053804008594 9.137554295495535 -5 10 4
17 1 1 0.5897 8.73715632538769 7.997095545803056 9.088255483362243 -5 10 4
650 1 1 0.5897 5.383687470379277 11.026923342534676 7.126288157639248 4 -1 -1
414 1 1 0.5897 8.310639929942372 11.39886609420597 7.619599231321284 -1 -1 7
825 1 1 0.5897 4.923117857686982 8.672249290123105 7.13752651748369 -6 6 2
823 1 2 -1.1794 5.839503710952123 8.921544129836855 7.018017196324722 -6 6 2
656 1 1 0.5897 6.469478075764973 11.500312149562522 9.310286113410303 -4 0 -1
657 1 1 0.5897 5.785694066813215 10.269937297430207 9.867412699801665 -3 0 -1
824 1 1 0.5897 6.285793226072655 8.572178074957204 7.789338869307488 -6 6 2
18 1 1 0.5897 7.57723588054111 7.11876842812858 9.506534550177864 -5 10 4
655 1 2 -1.1794 5.748917715061863 11.226345417175366 9.877662256673643 -4 0 -1
30 1 1 0.5897 5.037809188022092 7.49195469185433 9.967762426419227 -8 0 4
501 1 1 0.5897 6.772551403722763 7.694715868071334 6.11292940509741 -4 -2 -6
649 1 2 -1.1794 4.9481145647756035 11.753903299910757 6.681358455144177 4 -1 -1
65 1 1 0.5897 7.4824455410466895 8.828614555407142 10.745031181248706 4 2 -2
257 1 1 0.5897 5.938741101731762 7.6640152615905555 16.0309156663247 4 0 -1
838 1 2 -1.1794 5.549242047207657 10.818269650451347 15.577341889430668 -3 -4 -1
777 1 1 0.5897 8.551703366566631 9.57543407496403 13.935621857244938 8 -4 1
66 1 1 0.5897 8.174443454488044 8.788558552217927 12.09086688324359 4 2 -2
258 1 1 0.5897 6.326289638892783 7.751705193138049 14.570133615827851 4 0 -1
64 1 2 -1.1794 7.532752283896269 9.286249000279328 11.58420129881244 4 2 -2
256 1 2 -1.1794 6.280612216725557 8.26996986586386 15.373557077678168 4 0 -1
335 1 1 0.5897 6.955960538441093 11.15449784528152 14.6719477530248 7 1 3
334 1 2 -1.1794 7.673384945195848 11.39215424663391 14.084572771332128 7 1 3
845 1 1 0.5897 5.9926621848984905 9.467850915721648 12.407783711783356 1 -2 6
606 1 1 0.5897 8.734345380879947 7.047104605092405 14.530974589294484 -4 2 -4
775 1 2 -1.1794 9.000724101829713 8.741639722085544 14.074914021619845 8 -4 1
839 1 1 0.5897 5.607974669026939 9.973654108946562 15.130826209042787 -3 -4 -1
844 1 2 -1.1794 5.111787804080724 9.550258843947539 12.773087059825333 1 -2 6
137 1 1 0.5897 5.0366323567046525 7.681256129617293 12.407224178796866 5 -8 5
179 1 1 0.5897 6.843414706178913 9.547478610620075 19.09477335621429 -4 3 -3
814 1 2 -1.1794 8.15652586210896 9.237148552810076 17.481167286932685 -2 10 -3
178 1 2 -1.1794 6.138835400163198 10.049073220444514 19.50482062577181 -4 3 -3
609 1 1 0.5897 7.542085071988429 8.13962353859431 21.002087579173093 4 7 2
593 1 1 0.5897 5.367983396995487 9.098910917652653 20.700811128315557 -3 -3 -2
180 1 1 0.5897 5.3548359296131975 9.809752580068846 19.010614210126395 -4 3 -3
816 1 1 0.5897 8.66811688455008 9.994642408799686 17.197160553618396 -2 10 -3
815 1 1 0.5897 7.758603477988935 8.901506152043403 16.677930945153733 -2 10 -3
733 1 2 -1.1794 6.988477000046823 7.036366916177149 19.742695767489742 2 -1 -5
725 1 1 0.5897 5.724114666979281 7.018140371696287 18.27546501284517 6 -3 4
432 1 1 0.5897 6.1196230320331155 12.949481863271508 2.6275004397848205 -10 -3 1
26 1 1 0.5897 7.619581331897264 13.751425917620054 5.215435020502172 0 5 2
568 1 2 -1.1794 5.567702201149049 15.638514580461152 1.892665309044725 4 1 1
569 1 1 0.5897 5.397579248475115 16.29714846253013 2.5660459865333802 4 1 1
827 1 1 0.5897 8.337921868338684 13.969113993289255 2.125468984187533 -4 -2 2
664 1 2 -1.1794 6.035249890155279 13.782037988865133 4.219695242921427 1 0 2
665 1 1 0.5897 5.489794960053673 14.517936309323643 4.4973862637564865 1 0 2
666 1 1 0.5897 5.453712885165626 13.022953387479598 4.2618616038588035 1 0 2
418 1 2 -1.1794 8.94357779392727 16.029366309105868 4.040170709524634 -7 -3 4
828 1 1 0.5897 7.485503195104141 15.095877473853767 1.5818362644980364 -4 -2 2
430 1 2 -1.1794 6.09828346937708 12.727918371807899 1.696573549604923 -10 -3 1
826 1 2 -1.1794 8.383989111963212 14.766198134732152 1.5975370073125865 -4 -2 2
435 1 1 0.5897 7.543741375219752 16.294000502358735 5.150719140204364 0 2 -1
419 1 1 0.5897 8.575540079863451 15.508058830178067 3.326757513636539 -7 -3 4
433 1 2 -1.1794 6.791533199632266 16.535886881098715 5.690966674171802 0 2 -1
431 1 1 0.5897 6.840090764796043 12.135618903736365 1.5737996290845597 -10 -3 1
570 1 1 0.5897 5.1087709963454815 14.856847541060269 2.2001494954183762 4 1 1
25 1 2 -1.1794 8.26499951598181 13.636866288316991 5.912920202847248 0 5 2
27 1 1 0.5897 7.750677711518583 13.648528127224324 6.720086783304021 0 5 2
835 1 2 -1.1794 5.578883779496538 14.478851626191934 10.320554990510049 -3 1 -3
837 1 1 0.5897 5.670516918473476 15.431109196610706 10.288674997231638 -3 1 -3
125 1 1 0.5897 7.726134514296663 15.912487132610046 8.955549029735552 -4 -3 -2
8 1 1 0.5897 7.759804559801129 13.961195219258897 10.167839161548354 4 -2 -1
78 1 1 0.5897 5.196340397714355 15.143803298807816 7.5697413987326545 0 -2 -3
7 1 2 -1.1794 8.430651572499501 14.334148191202482 9.59595874294327 4 -2 -1
434 1 1 0.5897 6.7124919988749 15.823266904383543 6.325104395406046 0 2 -1
563 1 1 0.5897 7.17335787334744 12.058221239388537 10.959579181462232 3 2 5
77 1 1 0.5897 5.789495154835711 14.142185833721088 8.537571550266097 0 -2 -3
413 1 1 0.5897 8.409345628097167 12.68252143161115 8.41599146149037 -1 -1 7
76 1 2 -1.1794 5.719048369370724 14.342706828920536 7.604289687839634 0 -2 -3
651 1 1 0.5897 5.459401610611499 12.525455180637762 6.925251635464164 4 -1 -1
412 1 2 -1.1794 7.792695048825038 11.997574015963169 8.157618009883358 -1 -1 7
9 1 1 0.5897 9.076268304878345 14.70813177921276 10.19554891856316 4 -2 -1
124 1 2 -1.1794 7.8476387376825505 16.73925738069037 8.488794376887107 -4 -3 -2
562 1 2 -1.1794 7.740927833158875 12.6528518617542 11.449940509084641 3 2 5
517 1 2 -1.1794 7.209605979984659 15.868131078974999 16.145078870332263 0 -1 0
286 1 2 -1.1794 5.577511416997952 13.779528149797608 15.181003529729162 4 1 4
287 1 1 0.5897 5.853035216117228 13.095795179825398 14.570454281604317 4 1 4
677 1 1 0.5897 7.332739872711036 16.43031994591157 12.184981552836037 0 2 -4
1 1 2 -1.1794 8.374533138153616 15.316557480406583 13.47627961848745 -2 -6 6
2 1 1 0.5897 8.625200159188065 14.423950182526236 13.714188319030287 -2 -6 6
518 1 1 0.5897 7.786998057012674 15.950716072948756 15.386135975236767 0 -1 0
219 1 1 0.5897 5.0678773677806115 16.051499505567396 12.97821407245987 5 -5 -4
288 1 1 0.5897 5.097977175210255 14.40611721508031 14.639125895144801 4 1 4
564 1 1 0.5897 7.732958709340317 12.309872221042575 12.343514053827825 3 2 5
200 1 1 0.5897 5.076564445593202 13.486360475789706 11.847066776050292 -2 -3 2
519 1 1 0.5897 6.631312164137576 15.136888247434035 15.928217972830538 0 -1 0
201 1 1 0.5897 4.9277421503000065 12.024657356871712 12.21177613623123 -2 -3 2
336 1 1 0.5897 8.221634490856776 11.982131883454924 14.60181864420545 7 1 3
860 1 1 0.5897 5.791676513519803 12.831557529611612 20.6155060060858 -1 1 2
484 1 2 -1.1794 8.764713207955023 15.133680716054961 18.852037972335456 3 0 -2
760 1 2 -1.1794 7.363474970537258 12.332383942243512 17.143480506335052 3 -6 -1
859 1 2 -1.1794 5.467158273056008 12.70868770505952 19.723400795150305 -1 1 2
761 1 1 0.5897 7.170321907791323 13.24031148480063 16.90994869782451 3 -6 -1
332 1 1 0.5897 6.932188624958478 15.215317568058827 19.21528185039092 2 -3 -4
486 1 1 0.5897 9.029454857125335 14.232318388394832 19.03556645216796 3 0 -2