LAMMPS data file via write_data, version 30 Jul 2021, timestep = 8750000

1008 atoms
2 atom types
672 bonds
1 bond types
336 angles
1 angle types

-3.2080151586361154 14.818014158186664 xlo xhi
-0.1334153789093353 22.71341437890154 ylo yhi
-0.018844820545123042 19.24884282054544 zlo zhi
0.023435692592493507 -6.746696418525428 -0.29629365539530966 xy xz yz

Masses

1 1.008
2 15.999

Pair Coeffs # lj/cut/tip4p/long/omp

1 0 0
2 0.21084 3.1668

Bond Coeffs # harmonic/omp

1 450 0.9572

Angle Coeffs # harmonic/omp

1 55 104.52

Atoms # full

55 19 2 -1.1794 -0.6637332383740695 4.149772511870044 3.3318602177900196 0 0 0
56 19 1 0.5897 -1.2308925407739721 3.686588389751596 2.7153134225733377 0 0 0
57 19 1 0.5897 0.2137819909071954 4.068554919848971 2.958206115617376 0 0 0
121 41 2 -1.1794 -2.6054047488503436 2.4706414149651468 2.1697318148600413 1 0 0
122 41 1 0.5897 -2.7877743084931756 2.013400115322143 1.3487303849088954 1 0 0
21 7 1 0.5897 1.0201938155181471 1.8408229924037471 0.9224886282703669 0 0 0
31 11 2 -1.1794 1.1935004387927437 0.7932291589420267 2.2835962142918063 0 0 0
86 29 1 0.5897 -2.016935455085906 1.3877232246545177 3.899121882492297 1 0 0
32 11 1 0.5897 0.9723874645075625 1.0800854830286821 3.1696890271267275 0 0 0
46 16 2 -1.1794 1.9885941852497977 4.245648837340211 2.491140673100726 0 0 0
123 41 1 0.5897 -3.469060287722825 2.65037497835986 2.541339121339303 1 0 0
158 53 1 0.5897 -4.424536450120706 4.279785330409662 4.308811256433942 1 0 0
482 161 1 0.5897 -1.5521222363151606 0.15872183571797704 0.7354940506976606 1 1 0
33 11 1 0.5897 0.49768247248180053 0.17903060161969814 2.0494439129442945 0 0 0
47 16 1 0.5897 2.042649880764552 4.830763754368228 1.7355391721610562 0 0 0
114 38 1 0.5897 -3.3693583022859803 5.547940042666708 1.8203118753174308 1 0 0
18 6 1 0.5897 4.679378767102462 3.8742967938607 0.05281786076227324 0 0 0
54 18 1 0.5897 3.2325976160786007 2.96318589632572 3.19622008414514 0 0 0
602 201 1 0.5897 -0.3884358166370423 5.292634629882636 0.3812263806888139 1 0 1
528 176 1 0.5897 2.651589266591282 2.5516715795752525 -0.009069821666332734 0 0 1
16 6 2 -1.1794 5.293370787740184 4.608364611367936 0.03447193630614984 0 0 0
52 18 2 -1.1794 3.911721200562962 2.549298585177247 3.7290048674069283 0 0 0
71 24 1 0.5897 2.9982088763166175 0.4671037234075748 2.1485740497643704 0 0 0
70 24 2 -1.1794 3.7206287765514787 0.16179433119481096 1.5997389598144347 0 0 0
48 16 1 0.5897 2.079881423494504 4.82324735259999 3.249042646952157 0 0 0
526 176 2 -1.1794 3.5888949988335446 2.4209321733812073 0.13476460610879737 0 0 1
6 2 1 0.5897 3.8372160425896134 1.1566846512063502 4.795879221741232 0 0 0
19 7 2 -1.1794 0.9821374198777244 2.3653617474302635 0.12269746959711197 0 0 0
527 176 1 0.5897 3.6395136708798166 1.65482172899457 0.7063787744328742 0 0 1
85 29 2 -1.1794 -2.090506990589078 0.9933939898022652 4.768231867013423 1 0 0
157 53 2 -1.1794 -3.8604249208029406 4.918194240589798 4.7452278825751755 1 0 0
78 26 1 0.5897 0.18343342794325235 2.8208399003728277 4.448368188956091 0 0 0
76 26 2 -1.1794 0.7457335034991139 2.093916340744793 4.716171827282605 0 0 0
59 20 1 0.5897 1.905010126263555 3.154148864234446 5.5629271395435715 0 0 0
90 30 1 0.5897 -5.031892486187259 1.3614282348054842 6.035716276654065 1 0 0
98 33 1 0.5897 -4.029797050175537 5.315427566577973 8.174933506831254 1 0 0
34 12 2 -1.1794 0.2763637508790171 0.9108950470553663 7.242239737113364 0 0 0
35 12 1 0.5897 0.3364752360420309 1.6461613068176626 7.8522721260571435 0 0 0
36 12 1 0.5897 -0.6084283056381543 0.5675723447457208 7.366695348627834 0 0 0
45 15 1 0.5897 0.5611891248675933 4.607945052808833 6.961069374891954 0 0 0
22 8 2 -1.1794 0.3931237844191733 2.5309168071285923 9.404893200436213 0 0 0
43 15 2 -1.1794 -0.3579991436028047 4.838926216875758 7.095385320066405 0 0 0
58 20 2 -1.1794 2.0718109035749475 3.877196392634107 6.167685511574637 0 0 0
124 42 2 -1.1794 -5.132670050909065 2.388969696601803 7.470805043870429 1 0 0
97 33 2 -1.1794 -3.954755646760127 4.847367978036423 9.006536919462288 1 0 0
60 20 1 0.5897 2.82183077784536 3.587430227731197 6.687189812840869 0 0 0
126 42 1 0.5897 -4.321587130476282 2.8474966382223825 7.251541037165243 1 0 0
67 23 2 -1.1794 -2.4276414758296707 0.40192099977766027 8.203049924553856 0 0 0
134 45 1 0.5897 -2.239179551904838 2.4754734272663765 6.0549942718803225 1 0 0
133 45 2 -1.1794 -2.6043182257393602 3.2421353402200466 6.496880112474109 1 0 0
69 23 1 0.5897 -2.8163927850976447 0.9581857397155427 8.878190575920776 0 0 0
135 45 1 0.5897 -1.846677630052811 3.6771569174550844 6.888061922631337 1 0 0
77 26 1 0.5897 0.41492040703607636 1.8393992427300039 5.577581634411064 0 0 0
669 223 1 0.5897 -5.214691549060385 1.6356253437113322 9.154961658405753 1 0 0
44 15 1 0.5897 -0.3793089128869105 5.244654987815226 7.962170771128831 0 0 0
159 53 1 0.5897 -3.2725165275978463 4.389664476382491 5.284982752310016 1 0 0
4 2 2 -1.1794 3.8285096866977932 0.44523569153209275 5.436174436284747 0 0 0
87 29 1 0.5897 -3.0271175743279777 0.8298898584127741 4.878962259871869 1 0 0
11 4 1 0.5897 2.2163701499392534 5.434344407495106 5.167133064256727 0 0 0
5 2 1 0.5897 3.143207119627367 -0.14729297606690805 5.127087863259598 0 0 0
68 23 1 0.5897 -3.167585519671306 -0.08030750182191085 7.833958957813716 0 0 0
522 174 1 0.5897 2.23879377676281 5.047707244612045 9.157419533967257 0 0 0
606 202 1 0.5897 -5.816774504909976 4.497903745121059 9.471547172140411 1 0 0
24 8 1 0.5897 1.0952686484223886 3.1584825017378675 9.576243792071283 0 0 0
524 175 1 0.5897 -3.179474214611371 3.2119645571009 9.782715347476941 0 0 0
626 209 1 0.5897 -5.403026441215397 1.7085171012353089 12.885801578530891 1 0 0
627 209 1 0.5897 -6.408295035508158 2.70486138591969 12.348279797527926 1 0 0
556 186 2 -1.1794 0.6997760405213276 3.157132551179639 12.931429095085516 0 0 0
536 179 1 0.5897 -2.331363710634262 1.0487847716294438 13.045437922877793 0 0 0
550 184 2 -1.1794 -1.4793158777864495 4.553054798537548 11.853682333459046 0 0 0
508 170 2 -1.1794 0.6557768267419597 0.6139141691533416 14.323158086529643 0 0 0
23 8 1 0.5897 0.5345780010007788 1.8323362140236428 10.043821695876268 0 0 0
535 179 2 -1.1794 -2.1764826675528797 0.6710286637042993 12.179597961822575 0 0 0
551 184 1 0.5897 -1.216392285513077 5.202173982414328 12.50626319837879 0 0 0
537 179 1 0.5897 -2.4627421866290122 1.3488688773946762 11.567345100690853 0 0 0
561 187 1 0.5897 -3.4639422174711534 3.342586409789148 13.815475670732948 0 0 0
576 192 1 0.5897 -0.4049962530916549 0.2937516458271977 11.60697531750309 0 0 0
667 223 2 -1.1794 -5.300795338090456 0.9836020998297001 9.850417148440233 1 0 0
574 192 2 -1.1794 0.40986667203007254 0.03377302042930627 11.177195164611968 0 0 0
557 186 1 0.5897 0.35778775429441456 2.2789148546180686 13.098618097080918 0 0 0
558 186 1 0.5897 -0.017331492168460194 3.6143202415110083 12.492070902650042 0 0 0
559 187 2 -1.1794 -3.854124264464488 3.9979334715206276 13.237042443252788 0 0 0
560 187 1 0.5897 -4.438373173722623 3.497744442396903 12.66713228299718 0 0 0
625 209 2 -1.1794 -5.585502932636405 2.2669681794072494 12.130094876786133 1 0 0
668 223 1 0.5897 -5.54539726472769 1.4898946183781796 10.625144988454187 1 0 0
552 184 1 0.5897 -2.362510329199451 4.293402101441076 12.115831801762452 0 0 0
525 175 1 0.5897 -1.7574587137303652 2.7499900026058075 10.020519796594247 0 0 0
523 175 2 -1.1794 -2.6691933533956487 2.4777091856559044 10.124394796386142 0 0 0
663 221 1 0.5897 -7.544574140006591 4.578069285731052 14.141722872454272 1 0 0
630 210 1 0.5897 -8.25747538354317 1.527495041935119 16.149397064395096 1 0 0
591 197 1 0.5897 -5.008646772189588 -0.057969421887226064 14.515366083076264 1 0 0
571 191 2 -1.1794 -5.814695246616946 0.11989743943810649 17.563517766039325 0 0 0
547 183 2 -1.1794 -3.4334437717881947 4.66421285805998 17.181348498502686 0 0 0
582 194 1 0.5897 -1.9873008846037719 2.6904036110413383 15.16215599005876 0 0 0
661 221 2 -1.1794 -6.889157983458205 5.038808059330636 14.66561662742132 1 0 0
601 201 2 -1.1794 -7.339959887796619 4.484757220793592 18.866150862839675 1 0 0
639 213 1 0.5897 -5.678719188873335 3.705546535013956 15.465164435389799 1 0 0
538 180 2 -1.1794 -3.1175259240518756 0.5773713782078473 17.163117724411066 0 0 0
540 180 1 0.5897 -4.061540824943792 0.4542446743652149 17.06335387978817 0 0 0
165 55 1 0.5897 -9.646164235640036 0.16736144391314556 18.497682482885573 1 0 -1
539 180 1 0.5897 -3.027929775854777 1.123333426070033 17.944322252685396 0 0 0
638 213 1 0.5897 -6.268123795335045 2.8023884118552913 16.52751279388967 1 0 0
549 183 1 0.5897 -4.1209828591048145 4.044507608544158 16.937449331481314 0 0 0
562 188 2 -1.1794 -0.8116376563400989 3.909047794895258 16.08471572747241 0 0 0
563 188 1 0.5897 -0.8762561458583535 4.67041332036882 15.508215276880328 0 0 0
564 188 1 0.5897 -1.5391450283400214 4.01045066434431 16.698500279641145 0 0 0
164 55 1 0.5897 -8.884291210735842 1.461262207129948 18.30506588326112 1 0 -1
628 210 2 -1.1794 -8.0860188172672 2.126207776973469 16.876381546174187 1 0 0
637 213 2 -1.1794 -5.4434010103796515 3.0247542688837847 16.095563657264616 1 0 0
629 210 1 0.5897 -8.539258438346298 2.9338039629126627 16.634180586000692 1 0 0
581 194 1 0.5897 -2.8691801784582847 1.5260194922183608 15.559844111254613 0 0 0
590 197 1 0.5897 -5.520134690218898 1.192604003984818 15.19850641252164 1 0 0
20 7 1 0.5897 -5.803366839278041 1.4254723032890095 18.682832835317313 0 0 -1
580 194 2 -1.1794 -2.60134964139736 2.0491665704707986 14.804348428967101 0 0 0
603 201 1 0.5897 -6.69655134440194 3.775962601172046 18.867515731577196 1 0 0
163 55 2 -1.1794 -9.306358360367392 0.9240408639225268 18.975457415733025 1 0 -1
573 191 1 0.5897 -5.368621352900936 -0.4061140893985239 18.22734351800215 0 0 0
84 28 1 0.5897 -3.860429573313655 5.259099041736109 18.836670771467926 0 0 -1
101 34 1 0.5897 -9.262194226678906 4.418672520898721 19.078699457508097 1 0 -1
593 198 1 0.5897 -7.464122384761418 0.3438006607231512 14.60200086259134 1 0 0
589 197 2 -1.1794 -5.666207424106281 0.6331241059607737 14.435600413050524 1 0 0
289 97 2 -1.1794 -2.691686934943446 9.945032165560402 2.608943902619571 1 0 0
332 111 1 0.5897 -2.308247332446684 9.2604861592384 1.0269764532821193 1 0 0
255 85 1 0.5897 -2.6926022900820508 8.595089888087392 3.8737262386303972 1 0 0
147 49 1 0.5897 -1.0665368707200469 7.552774627208603 1.1785334000036425 1 0 0
146 49 1 0.5897 -1.4519059174595195 6.338078617176774 1.9956942105604378 1 0 0
145 49 2 -1.1794 -0.7022893342026282 6.763581335047492 1.5795367099022843 1 0 0
291 97 1 0.5897 -3.5978612175114257 10.24652522905847 2.6743749952279336 1 0 0
112 38 2 -1.1794 -3.0422054637160043 6.129454165072047 2.506734279824668 1 0 0
189 63 1 0.5897 1.8197350201269176 10.29616240295991 0.37696249424985845 0 0 0
174 58 1 0.5897 3.5642558931041046 8.971955121532844 4.401726122246824 0 0 0
694 232 2 -1.1794 3.6654993320765605 10.080068024222037 0.20046669290416905 0 0 1
187 63 2 -1.1794 0.8695453753261768 10.40783123249104 0.4081202711553864 0 0 0
201 67 1 0.5897 1.9017641542435166 8.397592067593608 2.3938978034280085 0 0 0
188 63 1 0.5897 0.6189012770367142 10.089733183144691 1.2754265233985311 0 0 0
200 67 1 0.5897 0.46673790227383627 7.985075130143722 2.143935363255879 0 0 0
290 97 1 0.5897 -2.1778440965020947 10.637280417095818 3.0249411679361695 1 0 0
199 67 2 -1.1794 0.9987092190316345 8.697122078386089 2.499210491199671 0 0 0
239 80 1 0.5897 3.668112586302944 8.665997607169725 1.4373248834959034 0 0 0
238 80 2 -1.1794 3.5892118092271 7.867546338473407 1.9592955851146443 0 0 0
331 111 2 -1.1794 -1.9226376342754505 8.741360398927277 0.32116352503855133 1 0 0
10 4 2 -1.1794 2.0765452230734107 6.084283539599004 4.4784436069652545 0 0 0
240 80 1 0.5897 3.1652146066191333 7.239465398060008 1.3744200346375524 0 0 0
245 82 1 0.5897 0.7157371261962941 9.047399333639678 4.220233340658983 0 0 0
113 38 1 0.5897 -3.2709264856724465 5.68790582825915 3.324620282740994 1 0 0
220 74 2 -1.1794 3.585483127298617 10.457846101074788 3.3641678433896547 0 0 0
221 74 1 0.5897 4.34002340132762 10.457949793725659 2.775178728979934 0 0 0
12 4 1 0.5897 1.1571010175061618 6.335100737370628 4.568123827871821 0 0 0
222 74 1 0.5897 2.9430087244807623 11.020178583606057 2.931314587545608 0 0 0
82 28 2 -1.1794 2.405587986315589 5.95820803528232 0.2922015988422266 0 0 0
224 75 1 0.5897 -0.19107230221871374 10.93107489756411 3.995464318689656 0 0 0
696 232 1 0.5897 4.3568540144926065 10.736413689340246 0.28678836575079564 0 0 1
9 3 1 0.5897 -0.7648469992159241 5.8511370916643894 4.148880557246648 0 0 0
254 85 1 0.5897 -1.9153340539192505 7.545196929421716 4.63905423587988 1 0 0
253 85 2 -1.1794 -2.6906013283423857 8.103916660721332 4.695306579454318 1 0 0
66 22 1 0.5897 3.0276607506421627 6.297572095696533 7.38422578213541 0 0 0
244 82 2 -1.1794 0.5704552350511229 9.657608984084474 4.9433531831132695 0 0 0
109 37 2 -1.1794 -4.4944551952357985 6.47632328276615 6.822511604580479 1 0 0
294 98 1 0.5897 -5.131350197400133 9.490362611286706 8.178609718933332 1 0 0
172 58 2 -1.1794 3.7896657303941437 8.360515277740342 5.102880340438342 0 0 0
7 3 2 -1.1794 -0.47243335851802026 6.4778959591137095 4.810718919345022 0 0 0
64 22 2 -1.1794 2.353428935693744 6.416170381922036 8.053282272468726 0 0 0
237 79 1 0.5897 -2.459108871176051 8.452951528212589 8.458861368683943 0 0 0
8 3 1 0.5897 -0.6231749969096896 6.033774316428208 5.645142679441733 0 0 0
228 76 1 0.5897 1.8332770478773615 10.911249893922236 5.829627666889655 0 0 0
292 98 2 -1.1794 -5.140043205397625 10.014533208201856 7.377719876389159 1 0 0
191 64 1 0.5897 0.4911578404345911 9.443820619702617 8.818122616151058 0 0 0
293 98 1 0.5897 -4.215862288598348 10.168513762614586 7.181764694073645 1 0 0
202 68 2 -1.1794 0.21684599176452402 8.36817866129618 7.449650083249071 0 0 0
203 68 1 0.5897 -0.6320888563713458 8.00063277814079 7.695430911169889 0 0 0
204 68 1 0.5897 0.8107025893477378 7.617414937655542 7.443240822065156 0 0 0
246 82 1 0.5897 0.287440753332898 9.104201718397626 5.67124323317055 0 0 0
235 79 2 -1.1794 -2.4007024800380283 7.555728739279405 8.13036322674241 0 0 0
236 79 1 0.5897 -3.2405543423935876 7.403725164948932 7.696907147660658 0 0 0
301 101 2 -1.1794 -2.6385946660125854 10.422905318434424 6.260214438947366 1 0 0
302 101 1 0.5897 -2.3790150307210314 9.64712357441928 5.7630710281174125 1 0 0
110 37 1 0.5897 -4.279737560578408 5.900449755785865 6.088584552138737 1 0 0
111 37 1 0.5897 -5.450924538642266 6.470632775213477 6.860176917670881 1 0 0
586 196 2 -1.1794 -0.5719376137391503 6.0740182741180595 9.6140812020204 0 0 0
588 196 1 0.5897 -1.1948660211088598 6.764354252499482 9.386581643578765 0 0 0
303 101 1 0.5897 -1.814168462804544 10.865185486979652 6.462613445688827 1 0 0
837 279 1 0.5897 -6.008180275689876 8.08819079366177 9.237693121551688 1 0 0
65 22 1 0.5897 2.7341605347406244 7.041986979064216 8.669522468052849 0 0 0
257 86 1 0.5897 -4.473636317580028 8.28275760959883 5.075255667045264 1 0 0
173 58 1 0.5897 3.179786606185658 7.63137603945927 4.990599284553394 0 0 0
726 242 1 0.5897 -0.3933893496434955 11.001384545980768 12.26766028688509 0 0 0
513 171 1 0.5897 -3.9314326913455595 5.739520865081743 14.346657462317507 0 0 0
759 253 1 0.5897 -5.7664132179696725 8.858474841649446 14.002004064037292 1 0 0
651 217 1 0.5897 -4.500467870669286 6.5332498410551025 11.498549821357768 1 0 0
691 231 2 -1.1794 -2.294664665459044 9.606358582407953 10.033724552831313 0 0 0
836 279 1 0.5897 -4.725655123276835 8.056302626457807 10.041595673993069 1 0 0
795 265 1 0.5897 -5.731763792274862 9.584048156942064 11.304633492574204 1 0 0
693 231 1 0.5897 -2.2074745964443383 9.091670243291931 10.836073903843522 0 0 0
649 217 2 -1.1794 -3.737191640082105 6.683965093007696 10.940976546214866 1 0 0
650 217 1 0.5897 -3.098603952220623 7.104450851871443 11.516942214638153 1 0 0
742 248 2 -1.1794 0.8488927894429841 7.716660878409636 11.46709149013695 0 0 0
793 265 2 -1.1794 -5.892479170608496 9.86721427935162 12.204820806788506 1 0 0
743 248 1 0.5897 0.7136179908168114 8.529750143892743 10.980444982639545 0 0 0
744 248 1 0.5897 0.6638202286839512 7.023848056718654 10.832960245954794 0 0 0
616 206 2 -1.1794 -6.155506059716322 6.240964785195428 12.231153604011718 1 0 0
724 242 2 -1.1794 0.38421796338609404 10.611541877821422 12.667293499760472 0 0 0
703 235 2 -1.1794 -1.9030425005072686 8.054919590124424 12.366403851433642 0 0 0
704 235 1 0.5897 -0.99219198038206 7.95728967887583 12.088720768805478 0 0 0
705 235 1 0.5897 -1.8693055179348912 8.691160706169262 13.080857607067756 0 0 0
617 206 1 0.5897 -6.520633684499392 7.090491747722568 11.983585941284565 1 0 0
794 265 1 0.5897 -5.269482689287845 10.579798581878924 12.347229043056357 1 0 0
678 226 1 0.5897 0.22930010736620776 9.135796929500719 13.713114773894105 0 0 0
750 250 1 0.5897 -3.5248856563859023 10.432583122785202 13.972085750233223 0 0 0
192 64 1 0.5897 1.0102003437693856 10.519761659445678 9.748221362656231 0 0 0
662 221 1 0.5897 -6.435267298398518 5.603144317262204 14.039788551226616 1 0 0
618 206 1 0.5897 -6.477689413339689 5.637075216022024 11.56193137651467 1 0 0
748 250 2 -1.1794 -2.8784044126875354 9.862324903501293 14.388273880563263 0 0 0
514 172 2 -1.1794 -0.9576322043737227 6.026249296063759 14.236309761201804 0 0 0
692 231 1 0.5897 -1.4355310839278896 10.010930164807952 9.913711331905219 0 0 0
835 279 2 -1.1794 -5.3632442555775866 8.65787239205942 9.656976922263883 1 0 0
99 33 1 0.5897 -3.7492290817561167 5.528057304661039 9.647460654400811 1 0 0
587 196 1 0.5897 -1.03471501983543 5.535116341575766 10.255631582249029 0 0 0
676 226 2 -1.1794 0.34032054924858013 8.473024490423574 14.394775026483053 0 0 0
515 172 1 0.5897 -1.8363178059814187 6.3526226081227595 14.430561789962914 0 0 0
516 172 1 0.5897 -0.3999363770167168 6.803410650487156 14.270897490624748 0 0 0
190 64 2 -1.1794 0.49320270895490737 9.71430489982826 9.736381759177162 0 0 0
757 253 2 -1.1794 -5.768980183936067 8.33746217979073 14.804932921027914 1 0 0
695 232 1 0.5897 -3.088975760539709 9.564367832765358 18.536395886847657 0 0 0
758 253 1 0.5897 -5.686212058878835 8.980844712193493 15.508910905545969 1 0 0
805 269 2 -1.1794 -5.799925027432536 10.670383532848984 16.246445386834733 1 0 0
613 205 2 -1.1794 -7.542976461792721 6.378484563986417 17.041170949540717 1 0 0
568 190 2 -1.1794 -1.2843973229937875 6.597190788530206 17.69325700485474 0 0 0
83 28 1 0.5897 -4.774722031897001 6.419681419091208 19.16734891065172 0 0 -1
798 266 1 0.5897 -8.516989870611607 9.345956825562281 16.747756318730474 1 0 0
797 266 1 0.5897 -7.4650074888956555 10.31966297603536 17.234785880194565 1 0 0
731 244 1 0.5897 -1.877380855585188 11.000521830708212 15.16028838452052 0 0 0
333 111 1 0.5897 -8.555729054493469 9.065647839080045 18.86902485502611 1 0 -1
740 247 1 0.5897 -6.124347034116726 7.305997436294419 17.63564901343435 0 0 0
762 254 1 0.5897 -7.723217877309809 8.07795653730559 15.004648827724099 1 0 0
569 190 1 0.5897 -1.3976654366236385 5.865751908476877 18.300152752453428 0 0 0
741 247 1 0.5897 -5.890816015820453 8.351237169404737 18.705763304000143 0 0 0
706 236 2 -1.1794 -3.218818681684863 8.579422797540694 16.86784625896386 0 0 0
707 236 1 0.5897 -4.053333501600886 8.313717555297243 17.25408035195857 0 0 0
708 236 1 0.5897 -2.6426421624846714 7.826449685399593 16.999779342334055 0 0 0
796 266 2 -1.1794 -8.34083793155293 9.989160946365626 17.434507866292808 1 0 0
749 250 1 0.5897 -3.357225724090684 9.434891459059642 15.098339542209951 0 0 0
739 247 2 -1.1794 -5.436764651108808 7.69655930820404 18.1751083334257 0 0 0
511 171 2 -1.1794 -3.749301972880458 6.343354738360872 15.066781814299512 0 0 0
512 171 1 0.5897 -4.289363941908361 7.111016575765903 14.878695769463171 0 0 0
615 205 1 0.5897 -7.398924060052636 6.02377704427347 16.16378037163617 1 0 0
548 183 1 0.5897 -3.49447983116949 5.36003038054269 16.526865210295757 0 0 0
614 205 1 0.5897 -7.317937184593871 5.6588668509296385 17.6308655296888 1 0 0
677 226 1 0.5897 0.2033622403906783 8.947109401041644 15.215055923814525 0 0 0
570 190 1 0.5897 -0.41742052626528636 6.4600353068148015 17.311381714627792 0 0 0
281 94 1 0.5897 -3.195727200719947 13.444450379478138 3.4774294736955556 1 0 0
282 94 1 0.5897 -2.415427539418848 14.08514904876452 2.3494294441899934 1 0 0
280 94 2 -1.1794 -3.301732769790453 13.834166063292713 2.609573043011314 1 0 0
250 84 2 -1.1794 2.27060885645169 13.717457943206368 0.2496692713314479 0 0 0
500 167 1 0.5897 -1.7739918203857288 15.951047276396716 0.38231443549649635 1 0 0
180 60 1 0.5897 2.0316733893657846 13.690739031826563 3.935616300421521 0 0 0
368 123 1 0.5897 1.9370979296043753 16.241238392315502 2.8087308084992877 0 0 0
314 105 1 0.5897 -0.1819064939899171 14.993572810554998 2.1787081177848084 1 0 0
423 141 1 0.5897 -2.244575932413305 16.531259816908374 3.8475905453972947 1 0 0
313 105 2 -1.1794 -0.9301352558107272 14.645206191660574 1.6938147727160895 1 0 0
315 105 1 0.5897 -0.5700582509644443 13.916870792002738 1.1876412323341397 1 0 0
225 75 1 0.5897 -0.7950601329094318 12.307913907591765 4.173381553285927 0 0 0
223 75 2 -1.1794 -0.7197960821346276 11.589734358160236 3.5449570187236317 0 0 0
252 84 1 0.5897 2.9394363505128887 14.34327572132139 0.5276666760205535 0 0 0
367 123 2 -1.1794 0.9957444141716101 16.24485658059141 2.982285627023141 0 0 0
214 72 2 -1.1794 1.6604507083037605 12.56140130490607 2.649371289315193 0 0 0
407 136 1 0.5897 4.494396434949522 15.506972760888916 2.1581923216038423 0 0 0
215 72 1 0.5897 1.8797279068091468 12.958954746019254 1.8066940927450663 0 0 0
216 72 1 0.5897 0.7238841278011714 12.372982412361768 2.5892641154383447 0 0 0
269 90 1 0.5897 -3.36094667085789 12.538926469935491 1.289027776965285 1 0 0
408 136 1 0.5897 3.9066119198253944 16.426440744400495 1.1088245855928136 0 0 0
406 136 2 -1.1794 3.6957942055452673 15.670071215414088 1.656185236664544 0 0 0
369 123 1 0.5897 0.9041612180018879 16.735699205320067 3.7990327883774992 0 0 0
268 90 2 -1.1794 -3.3123382664933256 12.193789002399011 0.39745907270080655 1 0 0
184 62 2 -1.1794 5.335471705936184 12.420000760696071 0.12596765620397987 0 0 0
499 167 2 -1.1794 -2.4631580733607388 16.54580087574311 0.08621192790128611 1 0 0
421 141 2 -1.1794 -2.127372155082418 16.07281195396586 4.679676090409769 1 0 0
425 142 1 0.5897 -4.222165036670393 16.09289361063248 4.7761998946111195 1 0 0
179 60 1 0.5897 2.316584871237657 13.24044899423747 5.352726087738813 0 0 0
227 76 1 0.5897 1.20910875459374 11.930260501332228 6.759284751591793 0 0 0
233 78 1 0.5897 2.492166752628595 14.305103187747957 7.774317787234914 0 0 0
327 109 1 0.5897 -3.776581847622373 13.25348010288746 5.666346706954289 1 0 0
422 141 1 0.5897 -2.101152941126696 16.769288225021974 5.335882564511432 1 0 0
211 71 2 -1.1794 -0.5209380570217923 11.97216858481116 7.137838826172631 0 0 0
212 71 1 0.5897 -0.6109904319569321 12.471645150601303 7.949494632696885 0 0 0
213 71 1 0.5897 -0.4637482886955202 12.637263840582452 6.451849094120905 0 0 0
921 307 1 0.5897 2.447970709006249 15.48806707168215 9.461777553367789 0 0 0
267 89 1 0.5897 -3.9790125348151477 12.698703296526983 8.59396938454783 1 0 0
325 109 2 -1.1794 -3.619966217438396 12.698669767260137 4.902118090622661 1 0 0
690 230 1 0.5897 1.7686700670774451 12.681565959470042 9.250986750729608 0 0 0
234 78 1 0.5897 1.1378445763809069 14.974364339912421 7.673700773235465 0 0 0
226 76 2 -1.1794 2.0368732739072115 11.695083021347479 6.339995298344792 0 0 0
232 78 2 -1.1794 1.6040599634800703 14.27385465186117 8.130046247262468 0 0 0
277 93 2 -1.1794 -4.204695171838354 13.91508457376784 7.2393369545969835 1 0 0
278 93 1 0.5897 -3.5860809704293817 14.588858474824255 7.521384141750273 1 0 0
403 135 2 -1.1794 -2.388407811648821 15.96670170065868 8.231343374305869 0 0 0
370 124 2 -1.1794 0.22926858765411984 16.385964590929376 7.328952177868024 0 0 0
405 135 1 0.5897 -2.553878746755198 16.632764132921203 8.898692747717853 0 0 0
175 59 2 -1.1794 -0.46149817126368786 13.871063072259926 5.088830108346163 0 0 0
404 135 1 0.5897 -1.462062930702376 16.07009944332654 8.013529547193098 0 0 0
340 114 2 -1.1794 3.88663907348111 16.081962737208976 5.234213053663656 0 0 0
326 109 1 0.5897 -3.272176570928833 11.88378140909136 5.264365705268428 1 0 0
279 93 1 0.5897 -5.041927296724194 14.184800669457331 7.616984986602891 1 0 0
754 252 2 -1.1794 -1.234540541884635 13.83205284599969 9.447901206448881 0 0 0
756 252 1 0.5897 -1.7705564365378077 14.512009867190281 9.039646238333852 0 0 0
341 114 1 0.5897 3.4275383684548135 15.256775313877537 5.07761344087522 0 0 0
265 89 2 -1.1794 -4.1696924844457435 12.239194154678293 9.411696008264345 1 0 0
178 60 2 -1.1794 2.2234169544100233 14.024779874763514 4.811999639595134 0 0 0
266 89 1 0.5897 -3.5114396470919145 11.545614386988177 9.456380437416707 1 0 0
177 59 1 0.5897 0.48200863718868225 14.012657881952435 5.166413437036109 0 0 0
176 59 1 0.5897 -0.825908295763746 14.746813518190608 4.960054538616298 0 0 0
910 304 2 -1.1794 0.3582501759915693 15.596317118168761 11.064153429315924 0 0 0
871 291 2 -1.1794 -2.213382863595891 16.034018126732832 12.146868424447963 0 0 0
831 277 1 0.5897 -7.689991815211128 11.726948872646387 14.312356599101653 1 0 0
718 240 2 -1.1794 -1.424957123949806 12.284418229638309 11.674040082306448 0 0 0
725 242 1 0.5897 0.7088210422696806 11.283826601948155 13.266402491606415 0 0 0
720 240 1 0.5897 -1.3747836234423785 12.871722781798551 12.428306417559504 0 0 0
911 304 1 0.5897 -0.46721521731208515 15.59669243432426 11.548751785508864 0 0 0
873 291 1 0.5897 -2.9116148375165167 15.446461401174389 11.857904390898963 0 0 0
728 243 1 0.5897 -3.4862982570520193 12.3448985592475 12.541193548895253 0 0 0
846 282 1 0.5897 0.5844434897066932 16.343665295341424 13.994938291407994 0 0 0
729 243 1 0.5897 -4.259757321734384 12.794440166014732 13.762604866869523 0 0 0
755 252 1 0.5897 -0.5005048870914339 14.306846788903812 9.837812699557194 0 0 0
785 262 1 0.5897 -7.2317447259350915 14.356837889239547 12.069660674916 1 0 0
784 262 2 -1.1794 -6.5431654083344775 13.710171854597958 12.224662335203343 1 0 0
773 258 1 0.5897 -6.926847580881866 12.720008103227688 10.760446412707083 1 0 0
719 240 1 0.5897 -1.4947001129315183 12.868707948318951 10.919077795032369 0 0 0
786 262 1 0.5897 -6.812450910933549 13.26010079109332 13.025371090494595 1 0 0
817 273 2 -1.1794 -4.014952966161646 14.382995652219158 11.031097132896706 1 0 0
818 273 1 0.5897 -4.673509766935555 14.086813733532336 11.659403082793624 1 0 0
819 273 1 0.5897 -3.839066791103907 13.614844844653085 10.487605947903694 1 0 0
912 304 1 0.5897 0.932213405435137 15.019319795845838 11.56811425428476 0 0 0
1003 335 2 -1.1794 -5.426809469297623 16.57072782533234 10.056045804531248 1 0 0
727 243 2 -1.1794 -4.137887059906431 12.047654128662547 13.176231786784736 0 0 0
1005 335 1 0.5897 -4.770560141090169 15.886494405931108 10.188401727300919 1 0 0
684 228 1 0.5897 -0.6719545585776086 14.329388894967963 14.172960712900961 0 0 0
682 228 2 -1.1794 -1.3307137635907873 13.650424930253918 14.02711995256149 0 0 0
688 230 2 -1.1794 1.9430535890568983 12.140550012542944 10.021159633186178 0 0 0
872 291 1 0.5897 -2.2666297778846562 16.781176291428622 11.550928191390257 0 0 0
917 306 1 0.5897 -2.282914288455883 16.765867019492113 13.777080681119747 0 0 0
774 258 1 0.5897 -5.910551595616308 12.11672368626229 9.814214689452943 1 0 0
876 292 1 0.5897 -2.7650085301030627 15.47159642329995 17.15782840785931 0 0 0
681 227 1 0.5897 -4.161363195635416 13.634009231691918 15.917913428020366 0 0 0
907 303 2 -1.1794 -5.929463051311133 15.148488674170697 18.076958927174925 0 0 0
501 167 1 0.5897 -8.849719867978596 16.66228030747331 18.568971319386467 1 0 -1
738 246 1 0.5897 -0.7960656752505484 14.264793976847566 16.968031539853307 0 0 0
908 303 1 0.5897 -6.64172488942462 14.860875243992936 17.505724383132772 0 0 0
251 84 1 0.5897 -5.102743931183611 13.945318841939674 19.018441274315837 0 0 -1
927 309 1 0.5897 -5.87576236528837 16.615276925125308 15.311672659486963 1 0 0
715 239 2 -1.1794 -3.965760168492996 12.292070480807217 17.105660473428266 0 0 0
716 239 1 0.5897 -3.8727602313941665 12.567713956393122 18.017655511425772 0 0 0
783 261 1 0.5897 -9.147151550363915 13.950852251415482 17.123534805694092 1 0 0
874 292 2 -1.1794 -3.4752339928968983 16.091455371965836 16.991331008675658 0 0 0
736 246 2 -1.1794 -1.490632850392699 14.442031134352412 17.60242281723686 0 0 0
806 269 1 0.5897 -6.256482117202662 11.272247516904304 15.658525989738456 1 0 0
875 292 1 0.5897 -3.234431475957865 16.51694031573946 16.168407338385823 0 0 0
909 303 1 0.5897 -5.223528510643454 15.389839327406326 17.477282892179822 0 0 0
781 261 2 -1.1794 -8.246791362781039 13.684382873247687 16.93731271693607 1 0 0
782 261 1 0.5897 -8.01577783286837 13.09865053263203 17.658313614217207 1 0 0
730 244 2 -1.1794 -1.4557859285285364 11.625080615395392 15.75064639505124 0 0 0
717 239 1 0.5897 -3.072852591555166 12.095597574963069 16.822070406839682 0 0 0
830 277 1 0.5897 -7.659104623676836 12.733864595933472 15.442583538305943 1 0 0
683 228 1 0.5897 -1.028885811423387 12.907180812420846 14.549402726894721 0 0 0
185 62 1 0.5897 -1.5576689002950221 12.878679974291279 18.823736652159596 0 0 -1
732 244 1 0.5897 -0.8774528717347705 11.089335022316783 16.29364711069367 0 0 0
737 246 1 0.5897 -1.1086163334751422 15.08070331187469 18.204481690540884 0 0 0
679 227 2 -1.1794 -4.03214621141353 14.053685497317783 15.067370205968915 0 0 0
807 269 1 0.5897 -5.187612444204492 11.225157392314486 16.729776335043155 1 0 0
930 310 1 0.5897 -7.822761762832147 16.027620623803585 14.609387356024492 1 0 0
680 227 1 0.5897 -3.0820847052185654 14.075716703031773 14.952586375295267 0 0 0
926 309 1 0.5897 -5.37555856876358 15.251076890390696 14.886299489780397 1 0 0
829 277 2 -1.1794 -7.132225379093153 12.388334599020263 14.72192748448241 1 0 0
925 309 2 -1.1794 -6.059953094551101 15.896036662989966 14.70742113943569 1 0 0