LAMMPS data file via write_data, version 30 Jul 2021, timestep = 2000000

972 atoms
2 atom types
648 bonds
1 bond types
324 angles
1 angle types

-0.20270609927389316 20.20270709927422 xlo xhi
-0.10511088600167717 20.10511188600863 ylo yhi
-0.02338100755860495 20.723379007559284 zlo zhi

Masses

1 1.008
2 15.999

Pair Coeffs # lj/cut/tip4p/long/omp

1 0 0
2 0.21084 3.1668

Bond Coeffs # harmonic/omp

1 450 0.9572

Angle Coeffs # harmonic/omp

1 55 104.52

Atoms # full

139 47 2 -1.1794 0.4838274643511524 9.132477634548692 2.0456141731833957 0 0 0
10 4 2 -1.1794 1.1648572996314863 3.9150393459274904 3.796168291780199 0 0 0
16 6 2 -1.1794 3.819084583440004 4.380012748174178 3.792202312237151 0 0 0
31 11 2 -1.1794 0.7477463483701938 1.8283582756891794 2.0493888252811963 0 0 0
33 11 1 0.5897 1.425439017650041 2.0205303277229327 1.4012367070598526 0 0 0
23 8 1 0.5897 2.577825788205342 0.9811601276106643 4.22105427236926 0 0 0
18 6 1 0.5897 4.111113525408561 3.515745441198079 3.502704283510571 0 0 0
12 4 1 0.5897 2.074312020249416 4.213159304564317 3.777526456324834 0 0 0
11 4 1 0.5897 1.1888344057465414 3.046460829149585 3.3948163125565154 0 0 0
5 2 1 0.5897 4.1500807319477975 0.6467817826876568 2.694601007501378 0 0 0
3 1 1 0.5897 3.367489570252616 2.5874789625467494 0.14787597912772185 0 0 0
132 44 1 0.5897 0.9657935610950596 7.689356372332314 4.7971295386314585 0 0 0
20 7 1 0.5897 0.6948049337615123 5.510301907928122 2.4406256729866582 0 0 0
14 5 1 0.5897 3.6836580058755195 5.8164212598496405 0.7724304323127674 0 0 0
4 2 2 -1.1794 4.123297447324148 1.3561276798063147 3.336610552562033 0 0 0
110 37 1 0.5897 2.065257645041522 9.410671831660455 0.7339056630607619 0 0 0
15 5 1 0.5897 4.327486392344033 6.7519171402181986 1.773496490929546 0 0 0
236 79 1 0.5897 0.799843313507056 -0.02692616853371277 1.8578813619141517 0 1 0
19 7 2 -1.1794 0.4083316586423037 6.327769535425099 2.033468745044832 0 0 0
112 38 2 -1.1794 4.091620369773249 7.9928761417183924 3.203587697242601 0 0 0
1 1 2 -1.1794 2.419722919438711 2.666192798133985 0.03872089207598635 0 0 0
114 38 1 0.5897 3.2951363990581974 7.874448541315711 3.721188038547248 0 0 0
126 42 1 0.5897 4.177477074055746 9.757770677177207 3.8772100707283195 0 0 0
13 5 2 -1.1794 4.425929726977432 5.888396211703601 1.3725734443904307 0 0 0
17 6 1 0.5897 4.023512514920858 4.960320659175035 3.058988993863453 0 0 0
674 225 1 0.5897 1.5058991497250371 5.814526847685052 0.39814939645986835 0 0 1
113 38 1 0.5897 4.790685626304781 7.6411650945704785 3.754847821441578 0 0 0
141 47 1 0.5897 0.6239453592776631 8.185989929086785 2.0689618098910207 0 0 0
130 44 2 -1.1794 1.921697902206775 7.7269553081093045 4.829860867127737 0 0 0
6 2 1 0.5897 4.783668864424162 1.1164955935118193 3.9867623649512653 0 0 0
22 8 2 -1.1794 1.8412981927098353 0.9931926084409535 4.832365867300196 0 0 0
111 37 1 0.5897 3.553622984018028 9.337955634275648 0.46619493040854254 0 0 0
32 11 1 0.5897 -0.07104204048701135 2.0812871868493508 1.6228420964837769 0 0 0
102 34 1 0.5897 -0.023348795477234563 0.7876385103131698 4.5216392628484465 1 0 0
140 47 1 0.5897 0.7676724068548169 9.438359477970858 2.9070563917725014 0 0 0
109 37 2 -1.1794 2.723266691206212 9.590361267446841 0.062326845647470805 0 0 0
325 109 2 -1.1794 2.3320067301555314 2.7084812600072947 6.882194305747127 0 0 0
326 109 1 0.5897 2.13365478221509 2.19797449366944 6.0971942956340754 0 0 0
327 109 1 0.5897 3.2471527680046033 2.5052120232212127 7.075841833638485 0 0 0
27 9 1 0.5897 2.4382025320765 4.561071549354349 6.436605208129116 0 0 0
356 119 1 0.5897 1.2688672513546284 2.3240281477906573 8.296733259182231 0 0 0
355 119 2 -1.1794 0.4839295274080819 2.172810037189934 8.82335438834806 0 0 0
26 9 1 0.5897 1.6912339687283873 5.738698559353924 7.025583245206291 0 0 0
468 156 1 0.5897 4.753547259696273 9.434670200132134 7.112260782557873 0 0 0
443 148 1 0.5897 1.0933284778880885 9.941803700290818 10.127759122991183 0 0 0
337 113 2 -1.1794 4.134142675401702 6.007089962372778 8.614668653620994 0 0 0
433 145 2 -1.1794 2.8403941232802716 9.223979388972904 7.2508801022415765 0 0 0
437 146 1 0.5897 4.021366133620621 7.618424627045527 9.471679389383176 0 0 0
344 115 1 0.5897 0.4702405937088505 5.383046367668621 8.73445857540213 0 0 0
131 44 1 0.5897 2.1788239396827054 6.91767806310337 5.271473311862682 0 0 0
343 115 2 -1.1794 0.2586395421535979 6.035759160087508 8.067135656156765 0 0 0
342 114 1 0.5897 3.4921409835304646 4.406710628054242 10.01869218691609 0 0 0
345 115 1 0.5897 0.4899076503746038 6.873188743743384 8.468805836590782 0 0 0
339 113 1 0.5897 3.951691343712411 5.861861080377297 7.686308730828604 0 0 0
330 110 1 0.5897 3.637641251998333 0.4139337072720414 9.474541608871025 0 0 0
25 9 2 -1.1794 2.357978201979103 5.512940271462273 6.376926895449606 0 0 0
435 145 1 0.5897 2.6540767907109815 8.691783619968193 6.4774208087769445 0 0 0
464 155 1 0.5897 1.4526647561027288 8.881364786979546 8.400708713769879 0 0 0
463 155 2 -1.1794 0.6740424302466199 8.790587156472432 8.950055237838189 0 0 0
335 112 1 0.5897 0.3714390997744136 3.595209780306337 9.958575656630606 0 0 0
438 146 1 0.5897 3.928718752170812 9.066498470943753 9.902954032403084 0 0 0
465 155 1 0.5897 -0.05765499681292613 8.979607682899086 8.362519330888196 0 0 0
561 187 1 0.5897 0.6592565942346736 0.41929461176507155 9.022689177397767 0 1 0
24 8 1 0.5897 2.0354897234887335 0.2934027586781263 5.455848516197065 0 0 0
328 110 2 -1.1794 3.671822756666577 1.1404520779489602 10.09672830803526 0 0 0
436 146 2 -1.1794 3.833189154202776 8.171920840211026 10.229576985289867 0 0 0
649 217 2 -1.1794 2.6231745088304943 2.263135413162189 14.10772062247257 0 0 0
650 217 1 0.5897 2.326231250566754 1.5663583674751032 13.52250230122934 0 0 0
651 217 1 0.5897 2.112491656029106 2.138546922813638 14.907683183683297 0 0 0
349 117 2 -1.1794 2.4125941821637134 4.923039093549259 13.988694159020518 0 0 0
757 253 2 -1.1794 2.586287191921086 9.118725386145355 14.346326969951926 0 0 0
350 117 1 0.5897 2.340549501871998 3.972422310854843 13.904217911645226 0 0 0
346 116 2 -1.1794 1.7903407039067107 0.8086773315834224 11.98576080339453 0 0 0
792 264 1 0.5897 4.394721436047062 9.130056889552929 14.506330102459692 0 0 0
683 228 1 0.5897 4.557386978022888 2.663718879097545 14.344482348237072 0 0 0
348 116 1 0.5897 2.344838720705374 0.9211534451229819 11.213656146459234 0 0 0
332 111 1 0.5897 4.770825875165866 4.406147873190326 11.70525960815765 0 0 0
351 117 1 0.5897 3.303817832993068 5.06889635897319 14.306155513595431 0 0 0
789 263 1 0.5897 1.032289665761784 8.971292414219727 15.503830581850806 0 0 0
759 253 1 0.5897 2.0360735075200234 8.593227862366252 13.765511352963575 0 0 0
347 116 1 0.5897 0.9128965894570293 1.0494348146709946 11.688321304371364 0 0 0
454 152 2 -1.1794 1.8001899347656884 7.421633683649224 12.147365888011858 0 0 0
455 152 1 0.5897 2.3666163897250483 7.5947071622611535 11.395392869182421 0 0 0
456 152 1 0.5897 2.1552472340283315 6.622363872470383 12.536263285216203 0 0 0
661 221 2 -1.1794 4.7226737601157325 5.683837025362777 15.26825066980318 0 0 0
668 223 1 0.5897 1.2477741782601661 5.802446168990368 15.12645799369846 0 0 0
533 178 1 0.5897 0.03650201801694669 7.484534831312018 12.069866539337983 1 0 0
336 112 1 0.5897 1.405810952755036 4.227921698560286 10.865041056326003 0 0 0
340 114 2 -1.1794 3.3566411566516607 3.822314317457954 10.764542938958016 0 0 0
329 110 1 0.5897 4.335448585369034 0.8788371385675131 10.73500584708593 0 0 0
334 112 2 -1.1794 0.5783736619998002 4.408472593551408 10.418902266305041 0 0 0
341 114 1 0.5897 3.451637600461706 2.94237584242335 10.40020438943254 0 0 0
652 218 2 -1.1794 3.8545396359081154 1.1880840057977287 16.966836821874328 0 0 0
653 218 1 0.5897 3.0656265316176565 0.935994798971058 17.446813345679782 0 0 0
666 222 1 0.5897 3.8928841392367577 2.9710841528164313 16.977852649364724 0 0 0
664 222 2 -1.1794 4.036283302598058 3.8956435013978137 17.17957459657726 0 0 0
665 222 1 0.5897 3.1759244591759455 4.219178151765787 17.446815890787864 0 0 0
671 224 1 0.5897 1.8742078811189242 1.5883273459578433 19.355392458300507 0 0 0
670 224 2 -1.1794 1.8908584453801107 0.7890523292274908 18.82909558094577 0 0 0
761 254 1 0.5897 4.173832664822985 8.878359217192997 16.830443282717123 0 0 0
681 227 1 0.5897 0.6312485994791532 3.0799090678010494 16.64659239495517 0 0 0
788 263 1 0.5897 0.719212470544603 9.355647488123925 16.934217508435317 0 0 0
675 225 1 0.5897 2.260170904180845 6.143292967660591 19.874113725478217 0 0 0
658 220 2 -1.1794 1.327931125923648 4.443989579613563 17.84040216529117 0 0 0
884 295 1 0.5897 0.2586333959666562 0.4301527350296004 16.036122986896366 0 1 0
679 227 2 -1.1794 0.5495209016604014 2.297865536882482 16.100860281020854 0 0 0
659 220 1 0.5897 0.6506354750556388 4.4661081293609985 18.516450853801718 0 0 0
660 220 1 0.5897 1.1032521398499078 5.1647086368266315 17.25199202426735 0 0 0
654 218 1 0.5897 4.102324471844082 0.4009390026061256 16.481940160364726 0 0 0
672 224 1 0.5897 0.9684975753304179 0.5714910008206898 18.693911387980183 0 0 0
760 254 2 -1.1794 4.1874560886275605 7.921357652446423 16.82504603114532 0 0 0
780 260 1 0.5897 2.6209655099349063 7.826189042144884 18.201678171968883 0 0 0
778 260 2 -1.1794 2.039381818327937 7.714108967210248 18.953618108659033 0 0 0
779 260 1 0.5897 2.273234800205253 8.428221678391562 19.546425950113676 0 0 0
858 286 1 0.5897 -0.03149764322193174 7.528600321958689 18.524186486159927 1 0 0
662 221 1 0.5897 4.4867103640337165 5.029661513223312 15.925925793556852 0 0 0
787 263 2 -1.1794 0.3929201263532679 8.832003426549447 16.202442607689463 0 0 0
667 223 2 -1.1794 0.6215524445363259 6.043278194207461 15.809186020549369 0 0 0
669 223 1 0.5897 0.6907775960741128 6.995740818969616 15.873087177170135 0 0 0
762 254 1 0.5897 4.804779170691376 7.686235755224988 17.517775126712667 0 0 0
2 1 1 0.5897 2.267948810756778 3.604773410770356 20.67547706497835 0 0 -1
673 225 2 -1.1794 2.1738085418440534 5.471994768877448 20.550898545703518 0 0 0
663 221 1 0.5897 4.462542685551495 6.519082546554843 15.656600626755326 0 0 0
240 80 1 0.5897 2.0092304921568025 14.126335299865726 4.69722933946747 0 0 0
120 40 1 0.5897 1.2558491833063787 11.94170286659112 3.5304955971085796 0 0 0
220 74 2 -1.1794 3.643126199993247 14.174796759933932 3.8199478439005135 0 0 0
247 83 2 -1.1794 0.7123361497133001 15.63581813454503 1.9859550500112384 0 0 0
129 43 1 0.5897 0.629764168140099 13.929978023258025 1.9964610090292867 0 0 0
123 41 1 0.5897 3.8981585116916717 12.331310236526903 1.3277738217164878 0 0 0
890 297 1 0.5897 2.0286951524413683 18.901144241593528 0.5785882183763283 0 0 1
229 77 2 -1.1794 4.59276477765887 19.198014138940266 1.9424103921279388 0 0 0
124 42 2 -1.1794 3.9300671470888737 10.64264342576269 4.145313115605893 0 0 0
235 79 2 -1.1794 0.7922595202811776 19.256622612718054 1.6185209114686803 0 0 0
122 41 1 0.5897 4.240231191225844 11.682695069643046 2.652187895727537 0 0 0
118 40 2 -1.1794 1.21542573308156 11.217044408745759 4.1544950475584015 0 0 0
125 42 1 0.5897 4.731135586967823 11.014165911357441 4.514759316707156 0 0 0
228 76 1 0.5897 0.19306790368368087 17.77770843804302 4.524168586548051 0 0 0
221 74 1 0.5897 3.5588431553830153 15.094023335852858 3.566965839311479 0 0 0
232 78 2 -1.1794 3.5682866529566075 17.081952446769364 3.4617655090200006 0 0 0
230 77 1 0.5897 4.359914407057982 18.945621376557973 1.0489294307359815 0 0 0
219 73 1 0.5897 3.399308763546905 16.182269816805693 0.2611055599998212 0 0 0
234 78 1 0.5897 2.666756182987618 17.208276908659137 3.75774707702806 0 0 0
119 40 1 0.5897 2.1247293171529704 10.934750714763473 4.253636130234392 0 0 0
121 41 2 -1.1794 4.52550249039527 12.369589519708873 2.0497478023650455 0 0 0
226 76 2 -1.1794 0.9448872392038539 17.654246119831804 3.9446663275455065 0 0 0
227 76 1 0.5897 0.897019080962252 18.386507617241385 3.3301643334787085 0 0 0
248 83 1 0.5897 0.7799148686872954 16.21492206454552 2.7450363039237144 0 0 0
127 43 2 -1.1794 0.6123977687348073 12.980773223292857 2.1179564300346994 0 0 0
249 83 1 0.5897 1.389595096209147 15.947238061261247 1.3854623446734833 0 0 0
783 261 1 0.5897 1.8806279467731333 12.36319903082779 0.9649656179486799 0 0 1
233 78 1 0.5897 3.7491180879688373 17.843679566493762 2.911138917877459 0 0 0
237 79 1 0.5897 -0.0824308473191131 19.10883229220117 1.2587798549267115 0 0 0
222 74 1 0.5897 3.971432651963881 13.738680675348734 3.033672609739003 0 0 0
217 73 2 -1.1794 2.4867381999247113 16.4139414393481 0.08821730308310231 0 0 0
781 261 2 -1.1794 2.4963073371192834 12.42468162300531 0.2346038563388717 0 0 1
133 45 2 -1.1794 2.439712330455017 11.911026256211118 6.890981853423415 0 0 0
134 45 1 0.5897 1.728993595145034 12.404965521639191 7.299817122795585 0 0 0
135 45 1 0.5897 3.2367150529551925 12.268081602881672 7.282876988977751 0 0 0
453 151 1 0.5897 1.0154414056382233 12.36476927025568 9.53594817998801 0 0 0
243 81 1 0.5897 1.461930813784945 19.07736926989029 7.462590958801573 0 0 0
239 80 1 0.5897 1.5258515462088413 13.06993034341616 5.667835335561899 0 0 0
542 181 1 0.5897 1.985056148419305 15.92088627841859 7.942868613221456 0 0 0
543 181 1 0.5897 2.134191653744694 15.05900385767341 6.707285655582686 0 0 0
576 192 1 0.5897 4.386230551820797 15.834410346978563 7.615562183005829 0 0 0
445 149 2 -1.1794 4.570778572157436 12.847729575609318 8.261732746498359 0 0 0
446 149 1 0.5897 4.235952065751381 13.543079982528315 8.827883069984955 0 0 0
559 187 2 -1.1794 0.5890447070155063 19.676411800669953 9.074648062917852 0 0 0
238 80 2 -1.1794 1.3984179534165369 13.985778336123804 5.4207154249854135 0 0 0
555 185 1 0.5897 3.6946815584878845 19.031537905521454 7.736077016664469 0 0 0
573 191 1 0.5897 0.6899160987066187 15.118972476624652 9.589452400780345 0 0 0
242 81 1 0.5897 2.1033484110366754 17.980405137002528 6.63983439476606 0 0 0
571 191 2 -1.1794 0.6157175421524639 15.99649480357733 9.214575911251027 0 0 0
572 191 1 0.5897 0.9522316318900468 16.577897586381 9.896421048787223 0 0 0
553 185 2 -1.1794 4.225256892419925 19.083801797143856 8.53107706618312 0 0 0
541 181 2 -1.1794 2.607331227342503 15.685747937173975 7.254563169889244 0 0 0
241 81 2 -1.1794 1.9860421827166146 18.929631310334727 6.6753613560107725 0 0 0
450 150 1 0.5897 4.21524113298625 11.640059999497593 9.510324157330167 0 0 0
558 186 1 0.5897 4.02190967574407 18.07665997804004 9.858822468793264 0 0 0
451 151 2 -1.1794 0.7874559349109673 13.043961010431008 8.901230472502988 0 0 0
434 145 1 0.5897 2.7750360581659597 10.127473728372667 6.941841513282889 0 0 0
448 150 2 -1.1794 4.015369024123147 10.916131520907529 10.103711973528073 0 0 0
188 63 1 0.5897 0.0333685901346448 11.345350289730266 5.4205657522312105 1 0 0
452 151 1 0.5897 -0.15958007358116433 12.960060110521738 8.789624819406223 0 0 0
457 153 2 -1.1794 2.63495361789947 12.010824222839267 13.641984200447244 0 0 0
458 153 1 0.5897 2.0457562880738904 12.181949350722837 14.376703335321976 0 0 0
459 153 1 0.5897 3.5097144207482325 12.182701660519333 13.990665881709567 0 0 0
562 188 2 -1.1794 1.9431623888019973 14.277494586006448 11.8850532066814 0 0 0
563 188 1 0.5897 2.160410514183229 13.411192613519937 12.22917922998792 0 0 0
885 295 1 0.5897 0.9676752066402268 19.707773556496655 15.077330247703205 0 0 0
546 182 1 0.5897 4.819743849720923 14.270626788470677 10.866735503439092 0 0 0
512 171 1 0.5897 -0.1658661445930662 11.24276703767005 11.741976338873375 1 0 0
867 289 1 0.5897 1.8346444835287739 15.778916399373786 14.706472141073835 0 0 0
545 182 1 0.5897 3.3289051159967977 14.532304358469531 10.832625182486957 0 0 0
879 293 1 0.5897 3.9530836994183733 19.249465752292544 15.126137358423593 0 0 0
769 257 2 -1.1794 4.779727345654121 12.642417187786723 15.260016084668866 0 0 0
564 188 1 0.5897 2.0193243369330185 14.861400759895615 12.639649252128422 0 0 0
567 189 1 0.5897 1.9992112822605517 19.347607775183562 13.098065398988336 0 0 0
865 289 2 -1.1794 2.459675616415663 16.121552716643144 14.067571298820184 0 0 0
565 189 2 -1.1794 2.1957632295710026 18.991862450224737 13.964670743183788 0 0 0
449 150 1 0.5897 4.531240330627411 11.099893775826184 10.888799463819883 0 0 0
566 189 1 0.5897 2.2031240617002563 18.043136711186094 13.83853041669578 0 0 0
550 184 2 -1.1794 1.2327404225360123 17.754287572471583 11.09418958635699 0 0 0
642 214 1 0.5897 -0.0648813791560233 14.134086346536572 11.633458589347816 1 0 0
866 289 1 0.5897 3.315496606523738 15.849997451752483 14.399477485395133 0 0 0
758 253 1 0.5897 2.5143757267224465 10.009565764335607 14.003817293642868 0 0 0
552 184 1 0.5897 2.1873981650286325 17.724431936584118 11.030085790187975 0 0 0
442 148 2 -1.1794 1.2401367513967416 10.733780866565247 10.644801222704702 0 0 0
444 148 1 0.5897 2.1761780425898154 10.911227610148833 10.551500752650357 0 0 0
557 186 1 0.5897 3.9458034621956175 16.726283371972052 10.538686634408455 0 0 0
556 186 2 -1.1794 3.8546433105736124 17.664199345208615 10.706220180106374 0 0 0
544 182 2 -1.1794 4.142216882000479 14.725091171758027 10.366052382066536 0 0 0
776 259 1 0.5897 0.03055190264391419 12.354312068075348 15.385676138783607 0 0 0
551 184 1 0.5897 0.9749593636047227 18.46561793199848 10.507922458577351 0 0 0
768 256 1 0.5897 1.2725456044241845 11.42841641692254 17.132249088438893 0 0 0
772 258 2 -1.1794 4.104439689566052 10.72453241556061 17.171245454515827 0 0 0
888 296 1 0.5897 2.1129871334389447 13.605074809430551 19.7351993065524 0 0 0
767 256 1 0.5897 0.5754972458393323 11.060834091688278 18.42489742984455 0 0 0
886 296 2 -1.1794 1.8241604765443409 14.265555137678419 19.105515944665505 0 0 0
869 290 1 0.5897 3.0355944856261132 14.210766923283973 17.499699320251988 0 0 0
766 256 2 -1.1794 1.3167050076970346 10.819435322204102 17.86935779599014 0 0 0
777 259 1 0.5897 0.9241012394680106 13.411100303763263 15.999339548209946 0 0 0
771 257 1 0.5897 4.426060073724531 13.397976754155621 15.7291773814154 0 0 0
965 322 1 0.5897 -0.08667500062274472 14.36273632065991 19.466143742143583 1 0 0
882 294 1 0.5897 3.791889556768304 16.352835871479833 17.28667844852694 0 0 0
878 293 1 0.5897 4.470709474237262 18.35452528575113 16.231928075699997 0 0 0
773 258 1 0.5897 3.242783832058228 10.731616001036855 17.58817521656044 0 0 0
868 290 2 -1.1794 3.817713813322273 14.481636188594868 17.018841185364387 0 0 0
775 259 2 -1.1794 0.8985255711860392 12.482604637639785 15.76843934669298 0 0 0
887 296 1 0.5897 2.1017141655208875 15.098317387447251 19.487063732647563 0 0 0
774 258 1 0.5897 3.9986646555555287 11.270785170305693 16.392441085213328 0 0 0
881 294 1 0.5897 2.7685853961395077 17.409033766620453 17.64603037827103 0 0 0
897 299 1 0.5897 0.43620582553686593 15.917632488340141 16.4947020489507 0 0 0
874 292 2 -1.1794 0.8596401055208027 17.529543465590734 17.40305523838447 0 0 0
876 292 1 0.5897 0.7127689511575476 18.290467413347542 16.84142882660105 0 0 0
880 294 2 -1.1794 3.6998231504845482 17.20053370251768 17.721432641413887 0 0 0
218 73 1 0.5897 2.5131900394131197 17.34493328217662 20.614450975341345 0 0 -1
891 297 1 0.5897 2.2927099964949913 19.562393806287915 19.98936467382847 0 0 0
895 299 2 -1.1794 0.408407395299479 15.282959165174606 15.778766002706824 0 0 0
875 292 1 0.5897 0.2640042483358569 17.657659950511196 18.14134225248863 0 0 0
889 297 2 -1.1794 2.7019960743492955 19.007535468106056 20.653308378876186 0 0 0
870 290 1 0.5897 4.544458940390152 14.274731123450115 17.606462986263406 0 0 0
873 291 1 0.5897 4.8618713332204955 17.93993018970651 19.118181134597478 0 0 0
883 295 2 -1.1794 0.2894653898974081 19.72674208995612 15.752566331971174 0 0 0
782 261 1 0.5897 2.521320793299921 11.5414111049147 20.61359885622734 0 0 0
877 293 2 -1.1794 4.634248678819934 19.190807143111712 15.796076517513098 0 0 0
155 52 1 0.5897 8.021178074264967 9.55056755472119 3.0831532461524946 0 0 0
48 16 1 0.5897 7.096407433238354 3.914853253603807 4.464502688651164 0 0 0
46 16 2 -1.1794 7.545306959115767 3.931346438782014 3.619241825425317 0 0 0
47 16 1 0.5897 7.423860899195723 3.0502062167051727 3.265780050504153 0 0 0
67 23 2 -1.1794 7.512652538259375 1.5486068239591704 1.8834203432778578 0 0 0
68 23 1 0.5897 8.176266407258257 1.7980934301007925 1.2402591658469964 0 0 0
143 48 1 0.5897 6.248659852141371 8.869976852135592 1.0106727249183987 0 0 0
69 23 1 0.5897 6.688032667069027 1.8612954706158142 1.5111945699220373 0 0 0
711 237 1 0.5897 8.332506941754255 5.228005214464613 0.10656749429847975 0 0 1
56 19 1 0.5897 6.11483329029037 5.489463124754682 1.243731456231292 0 0 0
175 59 2 -1.1794 7.573088025328696 8.099275905923573 1.985349110710834 0 0 0
55 19 2 -1.1794 7.048307578893653 5.564664279179281 1.44181395868517 0 0 0
36 12 1 0.5897 5.298348167951113 3.4736434643449523 0.10012364724458549 0 0 0
145 49 2 -1.1794 9.31410806942519 9.390570983419156 0.26084768923408286 0 0 0
57 19 1 0.5897 7.176650041921767 5.006622501912096 2.208797228433911 0 0 0
176 59 1 0.5897 7.5071806317419005 7.163697607049268 1.7945013547200077 0 0 0
41 14 1 0.5897 9.838029766393563 0.6565808627019177 4.069283723063271 0 0 0
177 59 1 0.5897 8.239281375155054 8.421671023461453 1.3783278837458917 0 0 0
53 18 1 0.5897 9.54119033342236 4.1575774950518065 3.7962979619189228 0 0 0
34 12 2 -1.1794 5.203856130303904 2.5800660788242125 0.4297934862578101 0 0 0
142 48 2 -1.1794 5.526725926024691 9.057477252051898 0.4107873389076601 0 0 0
29 10 1 0.5897 6.9377028689321 0.5078518482126075 5.091674748657914 0 0 0
138 46 1 0.5897 6.7882805986150245 7.353602651022957 4.918115843260714 0 0 0
166 56 2 -1.1794 8.669963770708494 7.352332761996928 4.815841667305076 0 0 0
137 46 1 0.5897 5.94503226304395 6.310015077615534 5.619299393353246 0 0 0
338 113 1 0.5897 5.081135926257597 5.891953619724534 8.694037047743059 0 0 0
8 3 1 0.5897 5.3003079052817155 3.708152830989784 6.607100538557435 0 0 0
500 167 1 0.5897 7.319619322156296 9.242873134340545 9.706046857245795 0 0 0
391 131 2 -1.1794 7.323534855902278 1.5670142509260194 9.22168780428763 0 0 0
392 131 1 0.5897 8.129215404979554 1.9022072683768103 8.828189551664089 0 0 0
360 120 1 0.5897 5.450572169159842 1.5223424074832421 6.8213136262999905 0 0 0
362 121 1 0.5897 9.068191767082256 3.5666631900462047 7.130993666530175 0 0 0
59 20 1 0.5897 8.897132566214847 1.1280582588726211 6.384556461434076 0 0 0
393 131 1 0.5897 7.333872643467947 0.6297488937609677 9.028114026194057 0 0 0
359 120 1 0.5897 5.686946645959111 2.251971946672139 8.126525072838207 0 0 0
358 120 2 -1.1794 5.05814562866711 2.167231689306875 7.4097844836913325 0 0 0
58 20 2 -1.1794 8.749645216887444 0.5093111973473413 5.669329409942708 0 0 0
380 127 1 0.5897 6.997107302347438 6.404523928479649 9.070399879047866 0 0 0
467 156 1 0.5897 5.808512877238491 8.605718290650703 6.41103149042515 0 0 0
361 121 2 -1.1794 9.325905377073205 2.685058641394898 7.400066023088764 0 0 0
470 157 1 0.5897 8.738274927433729 8.587063151084207 7.864554340597105 0 0 0
379 127 2 -1.1794 6.944720285824478 5.467932408178465 8.880327108190743 0 0 0
381 127 1 0.5897 7.193431973786778 5.04232668423996 9.700806855025318 0 0 0
61 21 2 -1.1794 8.61280878820397 5.306017990932561 6.784196049640767 0 0 0
62 21 1 0.5897 7.979191580382606 5.274537860371586 7.5010101939889315 0 0 0
499 167 2 -1.1794 7.286411759013407 8.445435157156233 9.177762651612353 0 0 0
469 157 2 -1.1794 9.249596613401954 8.906504615608014 7.121126395694061 0 0 0
501 167 1 0.5897 6.823922020762937 8.704557353353273 8.380797689532248 0 0 0
377 126 1 0.5897 9.910868504790683 4.054266452286421 10.330009777811435 0 0 0
168 56 1 0.5897 8.926643294737401 7.984234402873348 5.487390418001722 0 0 0
7 3 2 -1.1794 5.62675823711274 4.445819025759935 6.0919253137375176 0 0 0
167 56 1 0.5897 8.749700342645287 6.500516430173538 5.244973858622895 0 0 0
63 21 1 0.5897 9.419552796093045 5.622706718261796 7.190624261459997 0 0 0
466 156 2 -1.1794 5.701233533690708 9.327631917196706 7.030280701036269 0 0 0
9 3 1 0.5897 4.954207709446833 4.589822413160165 5.42616270758305 0 0 0
28 10 2 -1.1794 6.002771235358513 0.33996017395777056 5.210324443660217 0 0 0
136 46 2 -1.1794 5.895222829493122 7.175204878246327 5.213017798411611 0 0 0
384 128 1 0.5897 9.633582201526027 1.0886165663737017 11.513350757243725 0 0 0
352 118 2 -1.1794 6.005729182584522 0.6797573408281505 12.346883459550403 0 0 0
372 124 1 0.5897 7.2093027485123065 4.054324265592625 11.610863023364244 0 0 0
793 265 2 -1.1794 9.019014100027212 9.084610766206461 14.320879819107365 0 0 0
386 129 1 0.5897 9.178130157418083 4.8306293748708065 13.437354721555892 0 0 0
382 128 2 -1.1794 8.84093235716438 1.0784311334519279 12.049945298058827 0 0 0
353 118 1 0.5897 6.90823268110744 0.843223474681548 12.072823721897782 0 0 0
685 229 2 -1.1794 8.969080580833559 2.920536804491124 14.151036110807057 0 0 0
461 154 1 0.5897 5.582577605291372 8.053469563328902 12.845740008581533 0 0 0
354 118 1 0.5897 5.843231988905179 1.3249501646953938 13.034975243244562 0 0 0
795 265 1 0.5897 8.881506890809964 9.94552466232508 13.925960781197979 0 0 0
790 264 2 -1.1794 5.326485612989595 9.318855833226793 14.394605706219773 0 0 0
686 229 1 0.5897 8.316904800535001 2.6860828813256883 14.811283753358158 0 0 0
383 128 1 0.5897 8.992139342825505 1.7508466116861725 12.71413543599154 0 0 0
331 111 2 -1.1794 5.527989653490591 4.659125081061484 12.233461605916759 0 0 0
491 164 1 0.5897 8.957145914789024 7.549893420416514 11.368226947132037 0 0 0
333 111 1 0.5897 5.509333489712817 5.616031697581175 12.236777162490421 0 0 0
490 164 2 -1.1794 8.453617028027736 7.48016058341467 12.179310074676977 0 0 0
791 264 1 0.5897 5.6667313830541595 9.384797317604686 15.286839400240058 0 0 0
385 129 2 -1.1794 9.38479242549099 5.708717750121059 13.757252609569983 0 0 0
684 228 1 0.5897 5.596421215631257 3.5824928778685 13.737789168382479 0 0 0
492 164 1 0.5897 7.55069551887918 7.346998607182814 11.890619938202253 0 0 0
462 154 1 0.5897 5.053797158036329 7.6212001392401305 11.494652051526588 0 0 0
387 129 1 0.5897 9.011599508197142 6.2971325648480745 13.10098638324809 0 0 0
794 265 1 0.5897 8.753207117063605 8.464125348204693 13.642273350719634 0 0 0
460 154 2 -1.1794 5.687892444403126 7.382848348790755 12.170961933334537 0 0 0
370 124 2 -1.1794 7.8276984866828645 3.8430299416340814 10.911416950161561 0 0 0
682 228 2 -1.1794 5.483160655920766 2.900759670851927 14.400012978554923 0 0 0
705 235 1 0.5897 8.16092191909672 6.061530968149038 15.026659165184174 0 0 0
687 229 1 0.5897 9.80672429087236 2.6724559820313414 14.542318371528586 0 0 0
717 239 1 0.5897 6.603061695810871 2.1719459647022528 15.527023485155269 0 0 0
704 235 1 0.5897 6.707633088636317 6.106525933090161 15.448666666414551 0 0 0
371 124 1 0.5897 7.72846702464794 2.9001722297936356 10.780150048569004 0 0 0
678 226 1 0.5897 5.749461554248305 -0.08158381253567006 19.48310726463636 0 0 0
657 219 1 0.5897 6.86549445584185 4.359517814386037 18.894422405375078 0 0 0
785 262 1 0.5897 5.835727709294786 6.553505138520564 19.02327732642152 0 0 0
696 232 1 0.5897 8.118974101758917 4.794449513713293 16.874924561047774 0 0 0
786 262 1 0.5897 6.823351402109788 7.636730642968073 18.64510419295195 0 0 0
708 236 1 0.5897 8.010019727150722 0.47214020128888057 18.445871586525776 0 0 0
35 12 1 0.5897 5.503760967546199 2.0256367968102227 20.45624990141904 0 0 -1
715 239 2 -1.1794 7.344663493971314 1.8143029153154862 16.01529997385386 0 0 0
655 219 2 -1.1794 5.993980929410427 4.572140269680339 19.228481868851787 0 0 0
38 13 1 0.5897 9.276181812156945 1.870008967058752 19.83093968505741 0 0 -1
694 232 2 -1.1794 8.278991419239071 4.081890815723924 17.493595505327445 0 0 0
695 232 1 0.5897 7.8546395677878955 3.3207175084922675 17.097760484833973 0 0 0
706 236 2 -1.1794 8.964758375824232 0.4040485166038742 18.43251111288073 0 0 0
709 237 2 -1.1794 9.037147440797423 5.132627489157093 20.212478393070533 0 0 0
815 272 1 0.5897 8.986220827423084 6.907620785049775 19.243421648141858 0 0 0
816 272 1 0.5897 8.892655049151625 8.383947093049523 19.564590500817946 0 0 0
716 239 1 0.5897 7.3505703029374585 0.8830157198590537 15.794530753807425 0 0 0
703 235 2 -1.1794 7.594907742515793 6.263320905506847 15.771760843314619 0 0 0
676 226 2 -1.1794 5.857728128412967 0.7710213971166067 19.061880210568095 0 0 0
784 262 2 -1.1794 5.9061645122570745 7.497371443432429 18.881067180932327 0 0 0
144 48 1 0.5897 5.651586866569899 8.4447977122882 20.43284042036158 0 0 -1
814 272 2 -1.1794 8.689929910712095 7.743314757464626 18.88295324531005 0 0 0
825 275 1 0.5897 7.1848337619226665 8.050464867542457 16.75990585973396 0 0 0
823 275 2 -1.1794 7.297925579917255 8.975169479037907 16.540333343084782 0 0 0
677 226 1 0.5897 5.116816490465705 0.8368284404407785 18.4593718068795 0 0 0
710 237 1 0.5897 9.268917972857636 4.2046294236994415 20.24696413829115 0 0 0
656 219 1 0.5897 5.40504440144465 4.389255366752136 18.49640504681756 0 0 0
37 13 2 -1.1794 9.35476831047206 2.339070765896491 20.661596823142045 0 0 -1
824 275 1 0.5897 7.936537098059498 8.976183769129909 15.82726750763115 0 0 0
156 52 1 0.5897 9.161586636199527 10.505036674391611 3.366595811400123 0 0 0
817 273 2 -1.1794 9.281783983842594 12.356291478601738 0.3226261793204264 0 0 1
283 95 2 -1.1794 7.4011128006105 15.648520855624987 2.2775872503829384 0 0 0
154 52 2 -1.1794 8.2388365531291 10.34739149456386 3.566684211787661 0 0 0
275 92 1 0.5897 8.09214798327727 13.39313326767648 4.392839938782288 0 0 0
165 55 1 0.5897 7.387231897087712 11.672047443696744 2.8599481199166776 0 0 0
251 84 1 0.5897 6.077702258434304 15.661426592938634 1.235757313658284 0 0 0
819 273 1 0.5897 8.509352807905904 12.597169153477143 0.8341395142448262 0 0 1
163 55 2 -1.1794 7.186396741774555 12.513066311816072 2.4495716546122255 0 0 0
164 55 1 0.5897 6.244837931987 12.478782368113531 2.2802755680220512 0 0 0
231 77 1 0.5897 5.453438287743642 18.804537127364775 2.086419151941799 0 0 0
272 91 1 0.5897 7.761132921785049 18.48199953579595 2.5090908860370846 0 0 0
254 85 1 0.5897 8.643828630153688 16.197625291283266 0.6286717864556278 0 0 0