LAMMPS data file via write_data, version 30 Jul 2021, timestep = 35250000

864 atoms
2 atom types
576 bonds
1 bond types
288 angles
1 angle types

0.11424086850481707 18.093331531491554 xlo xhi
0.23875651287709587 23.390421287139148 ylo yhi
0.13279550928823447 22.0804002907049 zlo zhi

Masses

1 1.00794
2 15.9994

Atoms # full

707 1 1 0.5897 3.1033428792303575 1.770307385938967 3.793168797415932 0 0 0
706 1 2 -1.1794 3.101027347774576 1.7882986926335525 2.8361249535393873 0 0 0
30 1 1 0.5897 5.197165713052843 4.156303657429387 2.4151315171598546 0 0 0
708 1 1 0.5897 2.3429124865995052 2.326266127719189 2.6080431860009368 0 0 0
29 1 1 0.5897 4.492787307049849 2.8219254937287905 2.292923219434869 0 0 0
28 1 2 -1.1794 5.30974432741618 3.2695304328400003 2.072925775676441 0 0 0
3 1 1 0.5897 0.9909096261476812 4.137644498037716 2.4501750005450837 0 0 0
597 1 1 0.5897 0.7778346521416512 5.796544671300813 4.2274068864020045 0 0 0
495 1 1 0.5897 8.305103770143518 2.321881463270867 2.8192417352437777 0 0 0
494 1 1 0.5897 6.797775764176611 2.4180481287058493 2.7169676261656597 0 0 0
493 1 2 -1.1794 7.497192549680252 1.9937422908379316 3.213933608697573 0 0 0
1 1 2 -1.1794 0.9969174898623068 3.277585515951052 2.030163619560139 0 0 0
846 1 1 0.5897 7.272103118165463 1.8152746131717488 4.999330791208148 0 0 0
20 1 1 0.5897 0.883768605275456 3.1776476935822537 0.25613220973566736 0 0 0
595 1 2 -1.1794 0.7596390470887484 5.654757699664422 3.280923484615494 0 0 0
2 1 1 0.5897 0.25945732343200945 2.8125058172231463 2.4251630071352377 0 0 0
137 1 1 0.5897 5.141425785309225 5.868289412809888 3.86941803335582 0 0 0
136 1 2 -1.1794 5.157387673543309 5.8725909519136685 2.9123433316018192 0 0 0
819 1 1 0.5897 7.295284958865065 0.30673289316894525 2.5959334769074016 0 0 0
487 1 2 -1.1794 3.2148442600268607 1.8086715566766332 5.550638011990341 0 0 0
668 1 1 0.5897 5.477431102350282 3.353685825336445 0.3329441390604444 0 0 0
83 1 1 0.5897 4.516487298482993 2.828699752229326 6.242153957553185 0 0 0
183 1 1 0.5897 0.951231032988022 4.999829920500621 6.282997518760433 0 0 0
82 1 2 -1.1794 5.205642377155337 3.341429976317623 6.664469888614348 0 0 0
785 1 1 0.5897 1.2366494701735677 3.3423427120766536 7.720391058737541 0 0 0
674 1 1 0.5897 3.8422016572485136 2.308993451906334 10.149334041256136 0 0 0
356 1 1 0.5897 7.508818388343583 1.1313330113597448 10.007140247952227 0 0 0
676 1 2 -1.1794 5.026417916023467 5.6382533406876805 10.581719380883191 0 0 0
845 1 1 0.5897 7.4160661316662235 0.9415180408598822 6.227203313903936 0 0 0
181 1 2 -1.1794 0.9412499255774067 5.908553611609038 5.982573373271506 0 0 0
673 1 2 -1.1794 3.105118452936855 1.8044800171897626 10.49336975556734 0 0 0
34 1 2 -1.1794 0.9603638817195701 3.039602172161852 9.513538871207619 0 0 0
274 1 2 -1.1794 5.207573532674351 3.13113137198244 9.462067621993347 0 0 0
678 1 1 0.5897 5.039519514174176 4.772684432275897 10.173344403123432 0 0 0
35 1 1 0.5897 0.8879411542012646 3.892392447056602 9.942085908041818 0 0 0
36 1 1 0.5897 1.7186575762829281 2.626952364515646 9.926926593517145 0 0 0
355 1 2 -1.1794 7.529510996232365 2.0649041190117092 10.217263279876642 0 0 0
488 1 1 0.5897 2.5563448809881644 2.341631160681566 5.996179657996926 0 0 0
84 1 1 0.5897 6.018690947216035 2.9025408877897285 6.414429360036389 0 0 0
276 1 1 0.5897 6.064059756305178 2.7852427647243885 9.713007847430246 0 0 0
675 1 1 0.5897 3.199518442039328 0.9394582350537706 10.094655787226724 0 0 0
275 1 1 0.5897 5.21853247851462 3.1280078094887247 8.504919195336075 0 0 0
686 1 1 0.5897 5.205733861271955 5.017677464718125 5.982152936502426 0 0 0
784 1 2 -1.1794 1.2421562633201513 3.370177739575188 6.7635957170191645 0 0 0
489 1 1 0.5897 3.1072467707728744 0.9335159540812078 5.923018625289175 0 0 0
112 1 2 -1.1794 0.6009698484305181 5.626910779963149 10.338362773659407 0 0 0
844 1 2 -1.1794 7.397377244840839 1.8566666039369764 5.947408709715866 0 0 0
419 1 1 0.5897 8.932660268183561 2.710688816798451 6.394526645721687 0 0 0
176 1 1 0.5897 9.033965055399092 2.8549858441048053 9.633866155564554 0 0 0
786 1 1 0.5897 0.3972838265180485 3.000093560790068 6.507870827551244 0 0 0
685 1 2 -1.1794 5.276047065956984 5.920972525917445 5.673519820113169 0 0 0
166 1 2 -1.1794 2.9892936605574656 1.7832990548130696 13.157992851061696 0 0 0
167 1 1 0.5897 2.9855245655699045 1.7337406249619058 12.202064639280715 0 0 0
457 1 2 -1.1794 5.283490133892717 3.0786058664425036 13.92484405254278 0 0 0
458 1 1 0.5897 6.0111963812197615 2.613713584013771 13.511930363385833 0 0 0
459 1 1 0.5897 4.508642665995685 2.5677682327440188 13.690715223830582 0 0 0
762 1 1 0.5897 5.289665015408383 4.880437489498082 13.610844314410276 0 0 0
594 1 1 0.5897 8.223839092401667 2.314102295617289 13.31249615982282 0 0 0
168 1 1 0.5897 2.2353028426345674 2.3323988262034 13.37281714873549 0 0 0
468 1 1 0.5897 0.8340018763349678 3.258054326378877 14.789680297198132 0 0 0
466 1 2 -1.1794 0.8216633395338461 3.191108036494418 13.834884332608532 0 0 0
593 1 1 0.5897 7.658663763833727 0.9108117024793815 13.257665518388292 0 0 0
592 1 2 -1.1794 7.540226584558572 1.7891492866913636 12.896217071032629 0 0 0
365 1 1 0.5897 0.7322964012134402 4.845210720899822 13.342907053113152 0 0 0
71 1 1 0.5897 5.396139092241331 3.2228601822399408 15.717528495233866 0 0 0
760 1 2 -1.1794 5.374551903197208 5.790228230786535 13.325870144544627 0 0 0
357 1 1 0.5897 7.635182692271943 2.094605368932932 11.168165436665971 0 0 0
761 1 1 0.5897 5.3691950064481695 5.743765615305473 12.369798728239875 0 0 0
364 1 2 -1.1794 0.6733618226993534 5.770947399939872 13.106927304164836 0 0 0
113 1 1 0.5897 0.6459311919241166 5.734228315147015 11.288479052336246 0 0 0
133 1 2 -1.1794 0.9470693931473199 3.3429696690603117 16.557798485891468 0 0 0
754 1 2 -1.1794 7.827715911378166 2.055354283974537 17.423103820032196 0 0 0
21 1 1 0.5897 0.8203793032347637 4.0187237437424645 20.946585392940136 0 0 0
144 1 1 0.5897 5.009330433182413 5.832447481667663 19.64376759475862 0 0 0
755 1 1 0.5897 7.794278042880871 2.0666933898239788 18.379668764349994 0 0 0
290 1 1 0.5897 3.1884684383702324 0.9971966908048131 17.2736152001126 0 0 0
42 1 1 0.5897 7.861500416232009 1.2623596862576163 20.696275867664227 0 0 0
289 1 2 -1.1794 3.2268790521833424 1.9285509086542336 17.49094588376004 0 0 0
41 1 1 0.5897 7.159278599780793 2.5938237568375713 20.535793613872762 0 0 0
143 1 1 0.5897 5.179276907369728 4.9495773024901 20.861760913444783 0 0 0
569 1 1 0.5897 2.4490989363655955 2.5182836309688708 20.59412730169256 0 0 0
291 1 1 0.5897 2.4654526427185077 2.3087622246569564 17.052941456204167 0 0 0
570 1 1 0.5897 3.2402024273703085 2.0975824548044737 19.37385688411802 0 0 0
40 1 2 -1.1794 7.869528332437208 2.0641711410054437 20.17359272236817 0 0 0
81 1 1 0.5897 3.336245907402937 0.37748447977467947 20.90930779058629 0 1 0
667 1 2 -1.1794 5.671453176296488 3.3093485941483545 21.344255089083404 0 0 0
134 1 1 0.5897 0.9703823125164525 4.209698851306105 16.963244728561612 0 0 0
568 1 2 -1.1794 3.2709834974862884 2.1045099948255865 20.330553421857765 0 0 0
756 1 1 0.5897 7.029003833778351 2.5064204220229858 17.149677126426596 0 0 0
669 1 1 0.5897 4.900102279341317 2.8939552548392555 20.958717407282172 0 0 0
278 1 1 0.5897 5.430917068364468 4.921888285433721 17.443572971843835 0 0 0
19 1 2 -1.1794 0.9153125008373578 3.1155968362825694 21.249055277440903 0 0 0
571 1 2 -1.1794 0.7591342286037923 5.805540756555898 17.926609243512836 0 0 0
72 1 1 0.5897 4.672891855515257 2.7974853853999417 16.97763738394596 0 0 0
70 1 2 -1.1794 5.468668035544023 3.232760961774421 16.671947795686904 0 0 0
648 1 1 0.5897 0.5141972914272084 5.738142925942193 19.790428557333392 0 0 0
277 1 2 -1.1794 5.368111650094145 5.786208617808419 17.849962387532294 0 0 0
142 1 2 -1.1794 4.882641530081231 5.818843843620412 20.59246430128985 0 0 0
646 1 2 -1.1794 0.4762620884563242 5.707266748947635 20.74640120175296 0 0 0
323 1 1 0.5897 7.372977789510436 0.42049252613709953 16.93655736084866 0 1 0
135 1 1 0.5897 0.14737244700183538 2.9408776747099257 16.896882860070754 0 0 0
253 1 2 -1.1794 2.8133724484357927 7.254620538323736 2.2683322390914924 0 0 0
123 1 1 0.5897 2.8966686820022645 8.874600660682388 2.9178689892697687 0 0 0
121 1 2 -1.1794 2.9766496651373293 9.791008433513962 3.182313170368826 0 0 0
122 1 1 0.5897 2.939078591634041 9.769031744058676 4.138540632098037 0 0 0
44 1 1 0.5897 1.4244570768830986 10.600932479334784 2.6226664478027697 0 0 0
218 1 1 0.5897 6.033948248112757 10.795644489635436 2.4692201767505835 0 0 0
255 1 1 0.5897 2.1332786071164844 6.736962308589775 2.699237275913071 0 0 0
219 1 1 0.5897 4.532202318344503 10.645210483765151 2.587014943099003 0 0 0
43 1 2 -1.1794 0.6383180268806675 10.988608597624363 2.238133468526862 0 0 0
415 1 2 -1.1794 7.2900222792369265 7.38531623851246 2.1388434850644793 0 0 0
417 1 1 0.5897 8.061892714348769 6.871979491514872 2.377295963642864 0 0 0
254 1 1 0.5897 2.627760674780472 7.164243186415274 1.3336448522503384 0 0 0
217 1 2 -1.1794 5.2091742159867165 11.165719541194155 2.154631204351663 0 0 0
66 1 1 0.5897 7.489339957954838 9.859949542235647 4.043857876706113 0 0 0
65 1 1 0.5897 7.45768124833277 9.074402787807104 2.7501031708935226 0 0 0
64 1 2 -1.1794 7.514475050801395 9.966261803007795 3.092894785971125 0 0 0
416 1 1 0.5897 6.549041601789624 6.853381746643703 2.428937105963819 0 0 0
162 1 1 0.5897 7.1249423584425005 7.264490580402057 0.3813121394808109 0 0 1
138 1 1 0.5897 4.377332337747481 6.367335226679757 2.661522884015048 0 0 0
396 1 1 0.5897 0.8054379227106899 11.045618724512691 0.40899685339519365 0 0 0
773 1 1 0.5897 9.046888972103124 10.619289371037427 2.5245896522319216 0 0 0
363 1 1 0.5897 4.969221890716767 11.065688878591533 0.3921712070449364 0 0 1
256 1 2 -1.1794 2.6474410143337055 9.517170850010759 10.357207054999336 0 0 0
12 1 1 0.5897 3.125699180619138 8.165433554262723 6.467443241448356 0 0 0
10 1 2 -1.1794 3.142721376011197 7.266066350689091 6.794532814460739 0 0 0
794 1 1 0.5897 2.072253935373922 10.276804715478036 6.1643821668295065 0 0 0
526 1 2 -1.1794 7.232873680302358 6.924710543505572 9.51402139669147 0 0 0
577 1 2 -1.1794 5.079425544558158 11.09845512983229 6.870335885647945 0 0 0
145 1 2 -1.1794 7.421395028213225 7.210230566512418 6.76145517120953 0 0 0
551 1 1 0.5897 0.4423415653338384 10.999667830354788 7.718766032897696 0 0 0
687 1 1 0.5897 4.551548232613972 6.377666473215842 6.100962857690287 0 0 0
580 1 2 -1.1794 5.0932297376924955 10.518650956423054 9.501051691638601 0 0 0
650 1 1 0.5897 2.954098930093364 7.042904591015983 8.564506396955515 0 0 0
822 1 1 0.5897 8.262315446732009 9.914465671963667 9.939057546858031 0 0 0
527 1 1 0.5897 7.315699455147574 7.846185030741061 9.759285259428383 0 0 0
15 1 1 0.5897 1.2716986876895782 10.440008879431755 9.73549281489442 0 0 0
582 1 1 0.5897 5.172337855823563 10.705421773539625 8.565572644544698 0 0 0
820 1 2 -1.1794 7.4805993700762015 9.513474238306442 10.318931881743211 0 0 0
581 1 1 0.5897 5.954291034605916 10.184939076506462 9.752803571737735 0 0 0
147 1 1 0.5897 7.345759625739374 7.121664247372498 7.711557523105413 0 0 0
649 1 2 -1.1794 2.799262102552637 6.89902942178855 9.498091542173354 0 0 0
528 1 1 0.5897 8.048169399477572 6.522478659493306 9.81347496519108 0 0 0
13 1 2 -1.1794 0.4540015426794146 10.861333812310603 9.470878952939453 0 0 0
258 1 1 0.5897 3.4926907698539016 9.8633115978152 10.07100914108095 0 0 0
714 1 1 0.5897 7.320451239593757 8.964401660964194 6.193003390563494 0 0 0
257 1 1 0.5897 2.6559142510387317 8.601798985720503 10.077643576067475 0 0 0
146 1 1 0.5897 6.734031361947189 6.643112938819181 6.412069527180018 0 0 0
578 1 1 0.5897 5.843074763841156 10.682098266215368 6.470758722814621 0 0 0
550 1 2 -1.1794 0.4020360895736285 10.97564228667255 6.762700750639347 0 0 0
677 1 1 0.5897 5.781771854855083 6.091604697226412 10.207439849778826 0 0 0
651 1 1 0.5897 3.6162394825627553 6.519052982203573 9.821100073249854 0 0 0
11 1 1 0.5897 2.3461374341099064 6.867989633534003 6.443592088490757 0 0 0
795 1 1 0.5897 3.577745186070749 10.434253769529729 6.185413882351256 0 0 0
713 1 1 0.5897 8.094829741038593 10.265105980002522 6.180647415706441 0 0 0
114 1 1 0.5897 1.3929940684174362 6.053134826772105 10.010944431186667 0 0 0
165 1 1 0.5897 8.809739464308604 6.267666482949139 6.083284929651282 0 0 0
793 1 2 -1.1794 2.8801257452914357 9.871998335646806 5.848720160824842 0 0 0
712 1 2 -1.1794 7.279011659397158 9.866985790740731 5.87715443710879 0 0 0
14 1 1 0.5897 0.4997202848711858 11.736666837076822 9.855383973108836 0 0 0
826 1 2 -1.1794 7.57514452889332 7.1982784721312045 14.252345498085017 0 0 0
827 1 1 0.5897 6.744176829226739 6.801769594455253 13.990740060678357 0 0 0
332 1 1 0.5897 3.0325869642258447 7.851222877118037 13.638455932188375 0 0 0
797 1 1 0.5897 2.9500976323201518 9.490127259610663 12.111525208552592 0 0 0
796 1 2 -1.1794 3.0167400476932107 9.501873394703845 13.066346596758294 0 0 0
798 1 1 0.5897 2.2487794454567522 9.995214422993444 13.354471348749927 0 0 0
722 1 1 0.5897 4.555989549497107 10.49239679346266 13.445416644289326 0 0 0
261 1 1 0.5897 0.8155487779435102 11.038149463641348 14.98634565430585 0 0 0
723 1 1 0.5897 5.188599286790637 10.993355546364796 14.726329976273567 0 0 0
828 1 1 0.5897 7.681534645818076 6.94899814830619 15.170387867698729 0 0 0
259 1 2 -1.1794 0.8910435395524152 11.030291094475327 14.032144630900794 0 0 0
331 1 2 -1.1794 2.9793791219083072 6.987745528800427 14.047995009332094 0 0 0
225 1 1 0.5897 2.8263407810628376 6.955507033313875 15.933162306812696 0 0 0
721 1 2 -1.1794 5.345703395668926 10.91293078213307 13.78552629540009 0 0 0
475 1 2 -1.1794 7.747284055209201 9.613785452558169 13.02140011126202 0 0 0
476 1 1 0.5897 6.96840354810787 10.099902907814391 13.291949313189003 0 0 0
477 1 1 0.5897 7.636110648538089 8.746504952703832 13.41077046508993 0 0 0
333 1 1 0.5897 3.801678318923979 6.558831511961848 13.811305753856704 0 0 0
366 1 1 0.5897 1.5033165335202037 6.146701912816241 13.400441810332788 0 0 0
821 1 1 0.5897 7.608277098189459 9.587615603796772 11.264694020426484 0 0 0
851 1 1 0.5897 8.917727374060538 6.347271357832037 13.331351855688142 0 0 0
679 1 2 -1.1794 5.152713067795729 10.972363582123494 16.53442822271441 0 0 0
260 1 1 0.5897 0.11885823626457181 10.549505018771242 13.734254390074911 0 0 0
680 1 1 0.5897 4.353759677012221 10.541092663507122 16.83748758503925 0 0 0
141 1 1 0.5897 7.357872261353633 8.924826425561164 20.832056931950106 0 0 0
361 1 2 -1.1794 5.088322970498617 10.963249540783462 21.395539284242993 0 0 0
9 1 1 0.5897 6.739375925882733 10.103098459209042 17.32188526129623 0 0 0
4 1 2 -1.1794 2.7037810733791114 7.130265243315441 21.454460646341772 0 0 0
627 1 1 0.5897 2.135876506903692 10.126627168490632 17.277482104634252 0 0 0
394 1 2 -1.1794 0.7712933920863475 11.092509238814973 21.401145008525667 0 0 0
520 1 2 -1.1794 7.7010699543759875 6.897868668876728 16.997310162841572 0 0 0
140 1 1 0.5897 6.581396131196895 10.218657141043206 20.953449717220202 0 0 0
161 1 1 0.5897 6.364256285393695 6.79853310659877 21.105755857595348 0 0 0
690 1 1 0.5897 2.1358307339406166 10.173521734033315 20.70302072284504 0 0 0
625 1 2 -1.1794 2.9470443180896364 9.689049368450831 17.535742911364558 0 0 0
688 1 2 -1.1794 2.8385286020923384 9.654067948337245 20.312436384311347 0 0 0
223 1 2 -1.1794 3.009165382783056 6.959940089318694 16.87274648469254 0 0 0
224 1 1 0.5897 3.0044620364188677 7.886226873921193 17.113789511041126 0 0 0
689 1 1 0.5897 3.642729285801365 10.033143277628731 20.667036295823593 0 0 0
462 1 1 0.5897 8.750711491500667 6.323458518699424 20.939433374698417 0 0 0
626 1 1 0.5897 2.9515145171376544 9.736600512942621 18.491768361709767 0 0 0
139 1 2 -1.1794 7.3569363476667755 9.837044474707023 20.54224696304403 0 0 0
6 1 1 0.5897 2.653374490793538 7.978117956272229 21.013151011583126 0 0 0
521 1 1 0.5897 6.894095873832628 6.478208669829864 17.295385090458538 0 0 0
8 1 1 0.5897 7.3655015245713225 9.760978312128143 18.65712305892339 0 0 0
7 1 2 -1.1794 7.493832929536185 9.663170488112463 17.713602189427426 0 0 0
160 1 2 -1.1794 7.189188616626019 7.201858078391438 21.37591589946379 0 0 0
5 1 1 0.5897 3.505552424825751 6.7312304038294375 21.116667907356053 0 0 0
522 1 1 0.5897 7.645686878058214 7.79166462044148 17.335245685989044 0 0 0
279 1 1 0.5897 4.644564618427756 6.214439324676305 17.39249549263426 0 0 0
445 1 2 -1.1794 0.6465709697114396 11.001653762851637 16.812766251615585 0 0 0
647 1 1 0.5897 1.2863255165149867 6.1293104502929925 21.0324908239848 0 0 0
572 1 1 0.5897 1.5551775128491026 6.271919038964563 17.67171173473288 0 0 0
287 1 1 0.5897 8.913811680565598 10.612011355556211 21.02192082040618 0 0 0
246 1 1 0.5897 8.907691491197035 10.504531832749405 17.069845665975578 0 0 0
200 1 1 0.5897 5.105007935815456 13.672883408670343 4.927310259696159 0 0 0
173 1 1 0.5897 4.617501043611638 14.11462528832048 2.7971833089115963 0 0 0
172 1 2 -1.1794 5.394594283144193 13.693262576180445 3.1642685028383295 0 0 0
374 1 1 0.5897 0.7948348336916066 13.559785604057014 3.9149561668795934 0 0 0
558 1 1 0.5897 3.2046053709252647 14.86877413765352 1.1026785760579143 0 0 0
556 1 2 -1.1794 3.225480617149388 14.881129204521157 2.0595936757584186 0 0 0
557 1 1 0.5897 2.416998854236058 14.441633783786758 2.3229684544983833 0 0 0
478 1 2 -1.1794 7.4883834768975515 14.82247175465432 2.0384780368181765 0 0 0
174 1 1 0.5897 5.377103792384371 12.805216276484629 2.8075966216739907 0 0 0
293 1 1 0.5897 3.1041739791653433 16.570454656164042 2.5894299663568545 0 0 0
479 1 1 0.5897 8.271594889751102 14.368801525133364 2.349810871767884 0 0 0
449 1 1 0.5897 7.447853342584734 16.600317174953247 2.425820223882617 0 0 0
480 1 1 0.5897 6.769809007705885 14.426602266943569 2.531550428368404 0 0 0
373 1 2 -1.1794 0.9075466635238 13.616931219612333 2.966117550636165 0 0 0
308 1 1 0.5897 7.418107631330077 17.279176840926013 4.80295362943289 0 0 0
317 1 1 0.5897 7.360099029367868 14.803908800573852 0.25524555735600307 0 0 0
448 1 2 -1.1794 7.440681767235175 17.425211166486733 2.911262343776352 0 0 0
292 1 2 -1.1794 3.164910257940876 17.468999811014335 2.9135778295753285 0 0 0
294 1 1 0.5897 3.197277366803913 17.378899474757688 3.8660029530339184 0 0 0
375 1 1 0.5897 0.13051081514928597 14.08446353536156 2.659858019406618 0 0 0
45 1 1 0.5897 0.7216441585611314 11.92555227006479 2.4151035648773336 0 0 0
384 1 1 0.5897 3.197412769434402 16.48247745473673 9.953378473156178 0 0 0
656 1 1 0.5897 1.2605264076945808 13.994196651362689 6.0548081777705045 0 0 0
454 1 2 -1.1794 5.017896879415931 13.22677939415076 10.093389994159308 0 0 0
579 1 1 0.5897 5.094880963116019 11.99632167605515 6.539076427673482 0 0 0
811 1 2 -1.1794 2.9256582788802676 14.730799393545944 9.407036154831024 0 0 0
456 1 1 0.5897 5.166887256812671 12.301299354396889 9.899956127656381 0 0 0
813 1 1 0.5897 2.1858095713237313 14.255272761377475 9.784772045785981 0 0 0
17 1 1 0.5897 2.7033116681136593 14.802613307715298 7.5716293748764345 0 0 0
766 1 2 -1.1794 0.7089113334274872 13.386703794182205 10.354965040340442 0 0 0
239 1 1 0.5897 2.8262544497169846 16.521273203951232 6.023229671305313 0 0 0
377 1 1 0.5897 6.426314854975477 14.14458023980095 9.770477030706097 0 0 0
199 1 2 -1.1794 4.959134426981555 13.705576491272353 5.872778547407111 0 0 0
519 1 1 0.5897 7.945856349608104 14.452438146380603 6.476256861333672 0 0 0
812 1 1 0.5897 3.6901601287310175 14.197870097722523 9.625433294402567 0 0 0
18 1 1 0.5897 3.4284850647342253 14.322970124614786 6.332295929479337 0 0 0
376 1 2 -1.1794 7.260520750199541 14.55902263808096 9.550242997931786 0 0 0
16 1 2 -1.1794 2.6733311835211704 14.838402321342869 6.615553482250924 0 0 0
517 1 2 -1.1794 7.1974765403338985 14.936419923685895 6.825340439994982 0 0 0
186 1 1 0.5897 7.4714342581883555 16.28625096601659 9.987567062877062 0 0 0
378 1 1 0.5897 7.249045576292762 14.629142965112633 8.59566638647604 0 0 0
518 1 1 0.5897 7.312882475894431 15.827437517038508 6.495330308670521 0 0 0
201 1 1 0.5897 5.694831026946838 14.215571178209748 6.211634568479464 0 0 0
307 1 2 -1.1794 7.342982484724038 17.4039893820574 5.749020410447122 0 0 0
655 1 2 -1.1794 0.5292949086521379 13.484597660504438 5.705843041745562 0 0 0
184 1 2 -1.1794 7.456144101176203 17.18904237049744 10.3051670362471 0 0 0
382 1 2 -1.1794 3.1159785929969677 17.390837395886717 10.243883344681507 0 0 0
59 1 1 0.5897 8.801054312661247 13.785624949893291 10.16466647187916 0 0 0
238 1 2 -1.1794 2.8959790048029084 17.420688842665403 5.703346605508492 0 0 0
185 1 1 0.5897 8.31007118802141 17.544520465322883 10.058967383181255 0 0 0
552 1 1 0.5897 0.31355620181911115 11.892655750602868 6.503101417566385 0 0 0
455 1 1 0.5897 5.071163723017822 13.284171494876047 11.047396589705226 0 0 0
296 1 1 0.5897 7.524275901069836 14.731094085073359 14.971834507461296 0 0 0
232 1 2 -1.1794 3.1203856758937487 14.81470246937938 13.767872632420582 0 0 0
234 1 1 0.5897 3.0908008664148783 14.747569133227703 14.72227746833994 0 0 0
606 1 1 0.5897 3.153094897347191 16.57124429862416 13.224640303554308 0 0 0
427 1 2 -1.1794 5.325617629678062 13.527404257000093 12.888514269905695 0 0 0
233 1 1 0.5897 3.9075316004494005 14.331051171240018 13.517564484986659 0 0 0
639 1 1 0.5897 1.5704387537183784 13.980969338076193 13.315915528761657 0 0 0
429 1 1 0.5897 6.0820376596602 13.937312969056395 13.3080233084489 0 0 0
428 1 1 0.5897 5.342811763179485 12.621040832096215 13.195668112214175 0 0 0
637 1 2 -1.1794 0.7274850979715168 13.570688069651275 13.122890971132527 0 0 0
638 1 1 0.5897 0.7987081784553525 12.690662387086608 13.492516287244888 0 0 0
295 1 2 -1.1794 7.504529562133467 14.753682992268402 14.015089160136606 0 0 0
270 1 1 0.5897 7.540476374161133 16.359623665458194 13.297404262362988 0 0 0
297 1 1 0.5897 8.23352021092983 14.19447547415863 13.74672686030037 0 0 0
268 1 2 -1.1794 7.630065750513836 17.26933275771772 13.013607085480716 0 0 0
605 1 1 0.5897 3.016898649535771 17.51039652304404 12.045117227759322 0 0 0
269 1 1 0.5897 7.493471212076717 17.239893967365173 12.066643412084698 0 0 0
767 1 1 0.5897 0.6925577910502775 13.46920540688031 11.308479488693461 0 0 0
604 1 2 -1.1794 3.1536141240150126 17.499801951999878 12.99245855688062 0 0 0
823 1 2 -1.1794 2.94569400405805 14.88502285953991 16.433391102503926 0 0 0
824 1 1 0.5897 3.682881507562339 14.448649230677583 16.860365660399125 0 0 0
664 1 2 -1.1794 3.0965455977026606 14.952557412784707 21.334917170832945 0 0 0
715 1 2 -1.1794 2.9815382573183236 17.42482314173346 20.143650277835285 0 0 0
583 1 2 -1.1794 2.969069994081176 17.429854681556808 17.44874977321578 0 0 0
362 1 1 0.5897 5.084301738368344 11.857654897802579 21.054688329324975 0 0 0
452 1 1 0.5897 0.980329482369992 12.717980733385774 20.7721607256058 0 0 0
125 1 1 0.5897 4.99777043242641 13.473182409878824 18.42308754074479 0 0 0
124 1 2 -1.1794 5.032452333099558 13.546642814446534 17.46932489750626 0 0 0
684 1 1 0.5897 4.434930602503037 14.014950360073039 20.638679278364656 0 0 0
117 1 1 0.5897 8.941760496671892 13.954063315988137 20.805823352484424 0 0 0
666 1 1 0.5897 3.064984240387887 15.820416913668206 20.932464936804863 0 0 0
316 1 2 -1.1794 7.32409605720557 14.704137864725134 21.25152976778557 0 0 0
52 1 2 -1.1794 0.8716178096258674 13.546236275591907 17.7167857706306 0 0 0
318 1 1 0.5897 7.316130246509808 15.60063584336135 20.916318299512213 0 0 0
665 1 1 0.5897 2.357026274353979 14.482454967684683 20.949829063924362 0 0 0
584 1 1 0.5897 2.9792254146180306 16.541362894141635 17.092912238811152 0 0 0
683 1 1 0.5897 5.929225810059711 13.777415848542228 20.58977912219801 0 0 0
126 1 1 0.5897 5.903299236211688 13.89972554149317 17.287332814156976 0 0 0
682 1 2 -1.1794 5.097383382775151 13.435963832027335 20.261723321393497 0 0 0
50 1 1 0.5897 7.471004570834151 15.577317032546452 17.02098892543126 0 0 0
53 1 1 0.5897 0.9409611434758641 13.62824227707703 18.66796215152022 0 0 0
451 1 2 -1.1794 1.0095287290254944 13.624564033545415 20.466562316775452 0 0 0
825 1 1 0.5897 2.169870034324491 14.480379778578852 16.821379495213137 0 0 0
51 1 1 0.5897 8.252655661931435 14.289105005342233 17.166518068590257 0 0 0
610 1 2 -1.1794 7.5836791819994165 17.309126772783134 17.476940166762517 0 0 0
159 1 1 0.5897 7.684725415652627 17.333668601195548 19.26728322234527 0 0 0
716 1 1 0.5897 3.0801614110641684 17.26515275358548 19.20500981094367 0 0 0
49 1 2 -1.1794 7.427418479405672 14.640055159305058 16.83186865457956 0 0 0
453 1 1 0.5897 0.2503408375374718 14.040156956871297 20.87536218117826 0 0 0
157 1 2 -1.1794 7.550655564514763 17.328760034632037 20.215048818080888 0 0 0
446 1 1 0.5897 0.736530462301864 11.860693503366715 17.225206258548326 0 0 0
681 1 1 0.5897 5.055010080703034 11.882488271857152 16.814179201282528 0 0 0
267 1 1 0.5897 5.754448891627312 21.705386470567724 2.656039745606279 0 0 0
696 1 1 0.5897 1.3123843295416602 21.330307410884444 2.6118092299442424 0 0 0
266 1 1 0.5897 4.24362745450092 21.609660234582538 2.657953159768281 0 0 0
265 1 2 -1.1794 5.031062653926201 21.158175873111137 2.96172178335829 0 0 0
344 1 1 0.5897 1.538616454336067 18.04543366098276 2.337701161854494 0 0 0
228 1 1 0.5897 5.293475010044722 19.56149320714071 2.1298339492876095 0 0 0
343 1 2 -1.1794 0.6856981949850451 18.344472925264146 2.022618056956326 0 0 0
817 1 2 -1.1794 7.284364321046605 22.61670408199567 2.1403111308170346 0 0 0
249 1 1 0.5897 5.25806294298263 21.224619859490325 4.7548673848555785 0 0 0
226 1 2 -1.1794 5.276992598868896 18.69767575259958 1.7178938153175263 0 0 0
187 1 2 -1.1794 2.796936347876001 22.359510407143507 2.06234450724903 0 0 0
695 1 1 0.5897 0.4841674736419545 20.06313359018839 2.6115698411396164 0 0 0
694 1 2 -1.1794 0.5164887343860385 20.946171338623213 2.9794667485332416 0 0 0
818 1 1 0.5897 8.08195896561292 22.17540924746598 2.4323305352075404 0 0 0
188 1 1 0.5897 2.9336886239861584 23.247173526516885 2.393244056359699 0 0 0
189 1 1 0.5897 2.851976295166031 22.44696223226979 1.11072236292522 0 0 0
413 1 1 0.5897 0.5219198285908657 21.27845270569168 4.81293978237466 0 0 0
227 1 1 0.5897 4.509307227447313 18.26710521795347 2.0939826263671053 0 0 0
345 1 1 0.5897 0.7881720963968453 18.404172523310947 1.0727787285006751 0 0 0
498 1 1 0.5897 7.5746860521205885 22.692130040978938 0.402263619193537 0 0 0
450 1 1 0.5897 6.619469146558442 17.846098601506935 2.6570447164301676 0 0 0
321 1 1 0.5897 8.912123556937898 18.336366094629927 2.4921143142872766 0 0 0
555 1 1 0.5897 5.21865941596939 20.364116581249956 10.025057964205587 0 0 0
342 1 1 0.5897 0.7558754505007157 18.696261169705096 7.675309817848356 0 0 0
87 1 1 0.5897 8.046348378911421 22.017814214608737 9.82438264964215 0 0 0
37 1 2 -1.1794 2.939643154898079 22.424064142072922 9.255145946573283 0 0 0
86 1 1 0.5897 7.319708328438814 22.537396498364107 8.602130077396904 0 0 0
414 1 1 0.5897 0.6941882419972433 20.45380505429827 6.0707731327402445 0 0 0
32 1 1 0.5897 8.182005483833134 21.948659368480573 6.4124380644723855 0 0 0
404 1 1 0.5897 1.6016041916532584 18.246598303357548 9.716743791182292 0 0 0
39 1 1 0.5897 3.6862129183185948 22.0042343697062 9.682410738841401 0 0 0
553 1 2 -1.1794 5.126072615743808 21.259286570023555 10.351013556807594 0 0 0
701 1 1 0.5897 2.888915485254405 22.54586507223769 7.486635569572474 0 0 0
309 1 1 0.5897 8.11484168403331 17.918372761731348 5.9852638344167355 0 0 0
387 1 1 0.5897 5.166362295322334 19.48142136890006 6.394258248318051 0 0 0
102 1 1 0.5897 5.371566535054446 18.65191168710092 8.521906846946685 0 0 0
700 1 2 -1.1794 2.9416947577093784 22.443006838333417 6.5364216366212915 0 0 0
385 1 2 -1.1794 5.176990113191998 18.599592075929746 6.7662977165257185 0 0 0
702 1 1 0.5897 2.138738749881985 21.978585353948738 6.3003352491134015 0 0 0
38 1 1 0.5897 2.176952992177654 22.107423946593045 9.739117128773888 0 0 0
101 1 1 0.5897 6.0572435040095804 18.11560585502221 9.760504802807088 0 0 0
341 1 1 0.5897 1.5279408889815178 18.267221195483135 6.445782521791818 0 0 0
33 1 1 0.5897 6.669705632123147 21.946884242591658 6.344044003002241 0 0 0
247 1 2 -1.1794 5.23264984538654 21.12268714286078 5.706304599484043 0 0 0
85 1 2 -1.1794 7.33724213524405 22.60246995623855 9.556969764411086 0 0 0
554 1 1 0.5897 5.925858405644605 21.701935165045516 10.067163212243146 0 0 0
340 1 2 -1.1794 0.7562342078086088 18.762425760714322 6.7203778155948894 0 0 0
386 1 1 0.5897 5.955407507317892 18.18950579009412 6.389374111098343 0 0 0
31 1 2 -1.1794 7.410456431532274 22.432970153296402 6.706253086995498 0 0 0
100 1 2 -1.1794 5.331183099997869 18.671694358685993 9.478073009020731 0 0 0
248 1 1 0.5897 4.440813548712631 21.587659955001094 5.976421004905743 0 0 0
403 1 2 -1.1794 0.7942635287550976 18.676217998447356 9.434269023649573 0 0 0
94 1 2 -1.1794 0.7123661045803639 21.34748456376649 10.480166348893585 0 0 0
405 1 1 0.5897 0.8934481529187563 19.5845623449563 9.71923863655439 0 0 0
383 1 1 0.5897 3.92275719843555 17.811192401616005 9.94626531441815 0 0 0
412 1 2 -1.1794 0.5569577204967067 21.350957958716098 5.766766925857863 0 0 0
240 1 1 0.5897 3.713289059395475 17.746669969445794 6.080069480821459 0 0 0
380 1 1 0.5897 0.5762027741153688 20.468739461668385 13.419428884750555 0 0 0
88 1 2 -1.1794 5.1153415171284955 21.24469514960164 13.103026075608078 0 0 0
381 1 1 0.5897 1.2807785408348296 21.806431309042793 13.495734905687717 0 0 0
90 1 1 0.5897 5.083763329692538 20.323705415644497 13.36170905420352 0 0 0
763 1 2 -1.1794 5.457049435880847 18.58875246723982 13.918967553336952 0 0 0
738 1 1 0.5897 3.6588719859843235 21.934035539472138 13.70605818029819 0 0 0
89 1 1 0.5897 5.171142864298248 21.22387834021091 12.147663761564681 0 0 0
764 1 1 0.5897 4.732521242255055 18.075735569770938 13.561111784714432 0 0 0
474 1 1 0.5897 5.321568246691175 18.531697144477626 15.61891225660636 0 0 0
765 1 1 0.5897 6.244190234311374 18.13703975943861 13.614768980710126 0 0 0
350 1 1 0.5897 2.9999835839530573 22.417912263347727 15.876477327613204 0 0 0