LAMMPS data file via write_data, version 30 Jul 2021, timestep = 22250000

972 atoms
2 atom types
648 bonds
1 bond types
324 angles
1 angle types

0.06823767149594673 19.931763328503017 xlo xhi
0.0723118112167036 19.927689188779908 ylo yhi
0.20432253081883367 20.495675469179442 zlo zhi

Masses

1 1.008
2 15.999

Pair Coeffs # lj/cut/tip4p/long/omp

1 0 0
2 0.21084 3.1668

Bond Coeffs # harmonic/omp

1 450 0.9572

Angle Coeffs # harmonic/omp

1 55 104.52

Atoms # full

23 8 1 0.5897 2.877746318478299 0.5683295556262867 4.557037264552946 0 0 0
16 6 2 -1.1794 4.074602202609618 4.222655077879069 3.8747842739633094 0 0 0
5 2 1 0.5897 4.225345717226119 0.9465666737619359 2.919561551273556 0 0 0
12 4 1 0.5897 2.3277159653283315 4.427438932705981 4.032737068050468 0 0 0
31 11 2 -1.1794 1.2387529209487378 2.174136632645047 2.404096333573727 0 0 0
11 4 1 0.5897 1.2617243191276626 3.4658042599502523 3.5526490114763694 0 0 0
33 11 1 0.5897 1.928175756078646 2.1405454962596275 1.7409323758115998 0 0 0
6 2 1 0.5897 4.8895575151444195 1.2626359107389473 4.242692616241244 0 0 0
4 2 2 -1.1794 4.168193914777135 1.532371890812563 3.6743216352933876 0 0 0
18 6 1 0.5897 4.0243475699644335 3.27967401269072 3.719180094994549 0 0 0
10 4 2 -1.1794 1.4048034960254634 4.2013806456365845 4.148055699964667 0 0 0
3 1 1 0.5897 3.6936464898966888 2.1711630040846734 0.3507124734799629 0 0 0
32 11 1 0.5897 0.4623268885526726 2.4691182435664922 1.9283466460724505 0 0 0
17 6 1 0.5897 4.272755565580622 4.597203543929761 3.0165300833791773 0 0 0
22 8 2 -1.1794 1.9838881827490993 0.4804612520208689 4.887912338041598 0 0 0
236 79 1 0.5897 1.0936842553613255 0.21546563556303155 2.8272649022494605 0 1 0
1 1 2 -1.1794 2.746209436051973 2.238764381292897 0.23246599051599048 0 0 0
355 119 2 -1.1794 1.0853041986072578 1.9148049872286834 9.419456729409053 0 0 0
357 119 1 0.5897 0.21807179613518574 2.0310232331673204 9.031404259781187 0 0 0
356 119 1 0.5897 1.6818958819671619 1.8921427921659346 8.671275698773615 0 0 0
325 109 2 -1.1794 2.574227261872565 2.3773996469826986 6.857693445689704 0 0 0
326 109 1 0.5897 2.4643588573240995 1.6365437683876956 6.261773380328504 0 0 0
327 109 1 0.5897 3.5100295025399078 2.387115804109529 7.05859084101127 0 0 0
27 9 1 0.5897 2.584927169498705 4.435632357620865 6.628349938158896 0 0 0
330 110 1 0.5897 4.180216655798364 1.0983381842187294 9.823104387313538 0 0 0
102 34 1 0.5897 0.18066651167752593 0.7256792560451142 5.293620512199158 1 0 0
342 114 1 0.5897 4.320705174245514 4.864744390785765 10.087262025910041 0 0 0
346 116 2 -1.1794 2.29092098703213 0.6076461436762745 12.012957184195944 0 0 0
348 116 1 0.5897 2.707600703843849 1.1091621024911626 11.312248002423363 0 0 0
650 217 1 0.5897 2.604130831720531 1.9437340878439453 13.2267251208934 0 0 0
651 217 1 0.5897 2.1732063569870816 2.6961730936554753 14.467644145033969 0 0 0
336 112 1 0.5897 2.0933385084968075 4.600653707190868 10.902069607777895 0 0 0
350 117 1 0.5897 2.5612283491152046 4.783365465297461 13.290942463595153 0 0 0
347 116 1 0.5897 1.369639188056866 0.8647717601958367 11.97699580305307 0 0 0
649 217 2 -1.1794 2.8075013569640523 2.7181038692463946 13.751149717609636 0 0 0
335 112 1 0.5897 1.2587050499860568 3.4570281498512734 10.366363830361898 0 0 0
334 112 2 -1.1794 1.197447930790377 4.264701826913933 10.876203816818867 0 0 0
683 228 1 0.5897 4.4411989177361 2.7919510996421133 14.232162388611576 0 0 0
340 114 2 -1.1794 3.8831917441312314 4.415962644604861 10.810676908884032 0 0 0
329 110 1 0.5897 4.793299629908317 1.3246332607118512 11.188634147139929 0 0 0
341 114 1 0.5897 3.95494551641265 3.4863517103416712 10.594722874352575 0 0 0
328 110 2 -1.1794 4.274863424169802 1.7576105745100623 10.510469035949837 0 0 0
665 222 1 0.5897 3.4002659328720712 4.391558653125334 17.355767690337778 0 0 0
653 218 1 0.5897 3.346741669238909 1.0393757470755607 17.62086092225347 0 0 0
658 220 2 -1.1794 1.4410440862265437 4.240217326769323 17.520800752684053 0 0 0
671 224 1 0.5897 0.8695951446935353 0.6353841518884454 18.570548790411493 0 0 0
670 224 2 -1.1794 1.825510101613219 0.6027609641541931 18.607467381963176 0 0 0
664 222 2 -1.1794 4.3091014922676285 4.143877104603178 17.18590656408378 0 0 0
666 222 1 0.5897 4.274064773373252 3.2019641712499314 17.019917613163557 0 0 0
659 220 1 0.5897 1.0158914179961247 4.463813083453996 18.348720309376127 0 0 0
654 218 1 0.5897 4.199140737217966 0.8867810746750076 16.379106932860005 0 0 0
672 224 1 0.5897 2.059676379259062 1.213607901586296 19.306146162423325 0 0 0
681 227 1 0.5897 1.4308833041698679 2.8173618166260272 16.48626016273453 0 0 0
652 218 2 -1.1794 4.1716610762414925 1.326058233347595 17.229057924948997 0 0 0
679 227 2 -1.1794 1.2443351296889376 2.1553008685513197 15.820689981648425 0 0 0
660 220 1 0.5897 1.0966074810691018 4.876776031353738 16.894485477343046 0 0 0
884 295 1 0.5897 0.60026202342236 0.35081122048393837 15.877268096940231 0 1 0
2 1 1 0.5897 2.5809814887607017 3.1779118748388617 20.442125990873762 0 0 -1
680 227 1 0.5897 0.37822477150329326 2.3883436409904992 15.48644421639311 0 0 0
111 37 1 0.5897 3.404681692257637 8.901109664492783 0.4344316942955512 0 0 0
112 38 2 -1.1794 4.071777125471545 7.774841197937775 3.456698178814912 0 0 0
19 7 2 -1.1794 0.682585691910515 5.841413735180363 1.9794072920711234 0 0 0
141 47 1 0.5897 1.0501967996532664 7.707630298101113 2.4230890129915426 0 0 0
20 7 1 0.5897 0.9377273697637621 5.418540108976336 2.7993224794148723 0 0 0
13 5 2 -1.1794 4.62317334626201 5.694920031171263 1.7460280472629297 0 0 0
14 5 1 0.5897 4.0615822319264865 5.62438015639578 0.9741418769824477 0 0 0
110 37 1 0.5897 1.9810419068672507 8.92111221328619 0.9488391871759954 0 0 0
139 47 2 -1.1794 0.8539977893573028 8.625832969174105 2.2376289718824838 0 0 0
114 38 1 0.5897 3.207598756170295 7.716721623476406 3.864152421625527 0 0 0
15 5 1 0.5897 4.491323305505282 6.590169918028895 2.057696386068695 0 0 0
674 225 1 0.5897 1.873060673388918 5.483187780076649 0.6174404240628588 0 0 1
140 47 1 0.5897 1.0542130509484298 9.08357273375896 3.054058160731062 0 0 0
130 44 2 -1.1794 1.7609882792429916 7.299464823955984 4.816763723244722 0 0 0
132 44 1 0.5897 0.8188161506690943 7.345478556402807 4.97922387352721 0 0 0
126 42 1 0.5897 4.286802257190315 9.5694874639601 3.2607360632365086 0 0 0
113 38 1 0.5897 4.673480870508094 7.439413647922009 4.121242331406517 0 0 0
343 115 2 -1.1794 0.8740604590153869 5.878110641791896 8.825724777239081 0 0 0
437 146 1 0.5897 4.509756341482705 7.472302283389263 9.484012082240772 0 0 0
435 145 1 0.5897 2.652781060301537 8.882590690305317 6.100725712908155 0 0 0
438 146 1 0.5897 4.354081354216772 8.929266353684962 9.863853271216781 0 0 0
345 115 1 0.5897 1.0131674676561861 6.761268959252353 9.16731775484442 0 0 0
131 44 1 0.5897 2.04578262767408 6.51065083836047 5.2779604240102165 0 0 0
339 113 1 0.5897 4.082422539956366 5.987527419650674 7.71596638729937 0 0 0
337 113 2 -1.1794 4.644973921489439 6.103464367857311 8.481655583689909 0 0 0
25 9 2 -1.1794 2.517659334465891 5.384777051777335 6.730997058442513 0 0 0
464 155 1 0.5897 1.7172171018237006 8.949492122131947 8.416847347878397 0 0 0
433 145 2 -1.1794 2.8803488821313614 9.238222156555281 6.959741584199051 0 0 0
463 155 2 -1.1794 1.0150763936988885 8.624813157998673 8.980557471992135 0 0 0
468 156 1 0.5897 4.4678417136705555 8.923009117584524 7.2956848952196065 0 0 0
26 9 1 0.5897 2.005598648056226 5.50395773332491 7.530874657176471 0 0 0
465 155 1 0.5897 0.21289371687283296 8.794855904861986 8.48681587644757 0 0 0
436 146 2 -1.1794 4.44818863670241 8.054689690154682 10.241051577401649 0 0 0
344 115 1 0.5897 0.8762053739450848 5.3177140609932785 9.601655803280295 0 0 0
443 148 1 0.5897 1.2089516146695303 9.78319056789857 10.347911611732913 0 0 0
757 253 2 -1.1794 2.9099694932344056 9.35434129032869 13.706796218828558 0 0 0
351 117 1 0.5897 3.165778737683408 5.961741692300388 14.024032049651565 0 0 0
454 152 2 -1.1794 2.260734708606206 7.527255652177966 11.659193040143101 0 0 0
455 152 1 0.5897 2.986032573464608 7.706622457911713 11.060900485804387 0 0 0
456 152 1 0.5897 2.563196771289605 6.789485006481179 12.188586761377664 0 0 0
789 263 1 0.5897 1.668538861675312 8.984757998335972 15.030676515456811 0 0 0
759 253 1 0.5897 2.614339617000829 8.928222178876547 12.902306168839827 0 0 0
668 223 1 0.5897 1.0921816045458812 5.901050970448446 15.002203158716878 0 0 0
349 117 2 -1.1794 2.3776192939061094 5.684116987352978 13.55723901798004 0 0 0
661 221 2 -1.1794 4.559002009801907 6.253391987563717 15.204628296101884 0 0 0
792 264 1 0.5897 4.652430431227279 9.163790479849077 14.027130435885434 0 0 0
533 178 1 0.5897 0.4260636647232695 7.502704867781076 12.219948618848996 1 0 0
788 263 1 0.5897 0.9614783231979185 9.585051082756648 16.22712560091523 0 0 0
780 260 1 0.5897 2.815405667121675 7.718933293441386 17.70148384765703 0 0 0
778 260 2 -1.1794 2.200628798017858 7.403753875173451 18.363962675389693 0 0 0
663 221 1 0.5897 4.43864647668784 7.024072424235482 15.759271805554016 0 0 0
779 260 1 0.5897 2.336871836583901 7.983678333085867 19.113135855487272 0 0 0
761 254 1 0.5897 4.164110652836326 9.344118148606293 16.908295188741832 0 0 0
673 225 2 -1.1794 2.5565466457072783 5.446767649862768 20.23966126377063 0 0 0
675 225 1 0.5897 2.204516660939676 5.955172264242543 19.509093034807094 0 0 0
760 254 2 -1.1794 4.361266302938422 8.413936694363555 16.799326226432534 0 0 0
787 263 2 -1.1794 1.0121401589297716 8.788392290917283 15.699093848066546 0 0 0
858 286 1 0.5897 0.39580145316554627 7.263515796453007 18.31040494312736 1 0 0
669 223 1 0.5897 0.8730009614510087 6.945300575176231 16.076023735939557 0 0 0
662 221 1 0.5897 4.5198867569877255 5.513429885111128 15.810423623719327 0 0 0
109 37 2 -1.1794 2.503860914752555 9.076027351647193 20.453535286374986 0 0 -1
667 223 2 -1.1794 0.5656084147855205 6.088922890509697 15.779146200457552 0 0 0
762 254 1 0.5897 4.929789167466775 8.200850310221837 17.53931458687415 0 0 0
129 43 1 0.5897 0.5996932129924336 13.028498667896184 2.4019959575866237 0 0 0
127 43 2 -1.1794 0.485232961273995 12.132333187277828 2.086117446636567 0 0 0
783 261 1 0.5897 1.6701565711867432 12.040835550500953 0.5361705526164292 0 0 1
240 80 1 0.5897 2.9079920972009226 14.55564211154046 4.525367539715563 0 0 0
124 42 2 -1.1794 4.2134682960695 10.5229013125039 3.300505733355271 0 0 0
120 40 1 0.5897 2.326546964392482 10.812453674256469 4.090182666038568 0 0 0
125 42 1 0.5897 4.455943797986166 10.74493068709901 4.199465469319681 0 0 0
119 40 1 0.5897 1.0263256299391244 11.2233505008754 3.4327392665413523 0 0 0
238 80 2 -1.1794 2.3264218125392637 14.35972062319735 5.2599307934256645 0 0 0
121 41 2 -1.1794 4.17634283849795 12.829257995869545 2.082549355674784 0 0 0
118 40 2 -1.1794 1.3792597683549632 10.685115599386934 4.141150621305686 0 0 0
122 41 1 0.5897 4.3649519579943865 11.958845942505388 2.433018637662238 0 0 0
123 41 1 0.5897 3.593549502589411 12.668154258979813 1.340515627152716 0 0 0
247 83 2 -1.1794 0.9795423365044389 14.878015511000957 2.550529106088276 0 0 0
133 45 2 -1.1794 2.8729670928493323 11.912797378112984 6.400414289210174 0 0 0
134 45 1 0.5897 2.1403992588882668 12.012162414328493 7.008431899777513 0 0 0
135 45 1 0.5897 3.6508060541228864 12.080737000668067 6.932358050015423 0 0 0
446 149 1 0.5897 4.331353705993672 13.560304826212642 8.78183724502491 0 0 0
239 80 1 0.5897 2.5868110519756153 13.484038210633466 5.5451564132592015 0 0 0
573 191 1 0.5897 0.9050373395530967 13.737789506547893 9.042599128309062 0 0 0
451 151 2 -1.1794 0.7264985356508429 11.950575897986258 8.369151182270924 0 0 0
453 151 1 0.5897 0.6694595712052954 11.324332128171406 9.090736266906422 0 0 0
450 150 1 0.5897 4.4233270562787945 11.43520576074538 9.492139869727328 0 0 0
445 149 2 -1.1794 4.636777193799641 12.758916503252715 8.356930412555052 0 0 0
572 191 1 0.5897 1.4189228626551011 14.741075673984243 10.053019751465806 0 0 0
571 191 2 -1.1794 1.0155111145495046 14.677380948943096 9.187330254124475 0 0 0
544 182 2 -1.1794 4.742012428639671 14.903558112960416 10.063459034309902 0 0 0
448 150 2 -1.1794 4.3046350472549815 10.770616259306179 10.170625454551756 0 0 0
434 145 1 0.5897 2.7839738020424707 10.18524095161778 6.860527581656731 0 0 0
188 63 1 0.5897 0.18782136798850602 11.24570602299464 5.320348508688852 1 0 0
317 106 1 0.5897 0.5631500027655495 14.419520099680009 5.372659923113298 1 0 0
564 188 1 0.5897 2.425154193516811 13.59460039256695 12.09053356904281 0 0 0
775 259 2 -1.1794 0.5638232273495156 12.778237256006443 15.253947358409498 0 0 0
562 188 2 -1.1794 2.503721591902366 14.4058816155821 11.58887944983765 0 0 0
769 257 2 -1.1794 4.687020187289318 12.494882684551671 14.995235929676008 0 0 0
457 153 2 -1.1794 2.557062685921233 12.243047781159364 13.3545675859513 0 0 0
458 153 1 0.5897 1.831754599465049 12.558157249207735 13.89382331850596 0 0 0
459 153 1 0.5897 3.338876896489372 12.41623811597781 13.878947205259726 0 0 0
758 253 1 0.5897 2.9736084093319155 10.281387826252722 13.477777411985695 0 0 0
442 148 2 -1.1794 1.2733354701372177 10.567615491126281 10.892469878417035 0 0 0
444 148 1 0.5897 2.179692547876959 10.85756096000034 10.789361337491787 0 0 0
546 182 1 0.5897 3.9770073598928612 14.712289704364617 10.605999680234481 0 0 0
965 322 1 0.5897 0.3566182060864216 14.455265684992796 18.427211065166418 1 0 0
772 258 2 -1.1794 3.740410180586057 11.10058779900101 17.50513213210329 0 0 0
766 256 2 -1.1794 0.9075793627735915 10.975709751371246 17.165182064582773 0 0 0
781 261 2 -1.1794 2.3843409940909006 11.847312860513442 20.22032831798063 0 0 0
773 258 1 0.5897 2.7836997979206 11.086955591274345 17.478446786591142 0 0 0
768 256 1 0.5897 0.8178271260101846 11.755667383650303 16.617778462454048 0 0 0
886 296 2 -1.1794 2.131249816576675 14.065367735095428 18.70975668447541 0 0 0
869 290 1 0.5897 3.5624770286792726 14.090861302022118 17.547467244839744 0 0 0
888 296 1 0.5897 2.1968271209329604 13.214384698086706 19.142804654189405 0 0 0
774 258 1 0.5897 4.001050729049091 11.378335487507933 16.62698998176262 0 0 0
767 256 1 0.5897 0.3251266616599612 11.135311742407712 17.907789695297588 0 0 0
771 257 1 0.5897 4.787290802151108 13.185340356605698 15.650450363027577 0 0 0
887 296 1 0.5897 2.372272523877868 14.698015302797485 19.386325829904365 0 0 0
868 290 2 -1.1794 4.379193712021513 14.241718132007978 17.071634337187504 0 0 0
782 261 1 0.5897 2.636791393351809 10.947310937504366 20.42588974655761 0 0 0
764 255 1 0.5897 5.002604439429252 10.953903315037994 18.861855830645858 0 0 0
777 259 1 0.5897 0.5248893427871805 13.698056606293086 15.5154773524965 0 0 0
235 79 2 -1.1794 0.9683372718379724 19.19764379450658 2.4560175575652585 0 0 0
234 78 1 0.5897 2.742142395525923 17.673106107307085 4.194379162975182 0 0 0
230 77 1 0.5897 4.086572021327821 18.751863400643906 1.1440951834235595 0 0 0
229 77 2 -1.1794 4.546289487217356 19.03472353368905 1.9345589908005816 0 0 0
226 76 2 -1.1794 1.2164957308711648 17.06770493996411 4.226668949908849 0 0 0
228 76 1 0.5897 0.6068807687402384 17.12263244735893 4.962585993674971 0 0 0
232 78 2 -1.1794 3.684108211031236 17.83369817950205 4.138906500731725 0 0 0
227 76 1 0.5897 1.0801807096214135 17.881010467235008 3.740871820362566 0 0 0
249 83 1 0.5897 1.6133778976385291 15.048272571787182 1.8538016813085785 0 0 0
233 78 1 0.5897 3.7849653503752423 18.410837159387995 3.382021420709793 0 0 0
248 83 1 0.5897 1.228094633420436 15.478584164742136 3.2531392646787363 0 0 0
221 74 1 0.5897 4.148956786401835 16.263705063494427 3.9769742727864545 0 0 0
890 297 1 0.5897 1.8143250302977734 18.91376696402267 0.8491962746167678 0 0 1
217 73 2 -1.1794 2.6677789807205317 15.842901528549307 0.44322604062765125 0 0 0
222 74 1 0.5897 4.551880852443073 15.319061171728077 2.8647951932872227 0 0 0
219 73 1 0.5897 3.61232565947672 15.907243987815248 0.5842390164480229 0 0 0
220 74 2 -1.1794 4.456689961262634 15.371894562660051 3.815784186430003 0 0 0
241 81 2 -1.1794 2.092188971284981 18.42676642529066 7.104820835326013 0 0 0
576 192 1 0.5897 4.667850297381383 15.595714074244052 7.5562029038314265 0 0 0
554 185 1 0.5897 4.97855275254122 19.245034627062058 8.489922121929416 0 0 0
541 181 2 -1.1794 2.903470943422141 15.745163593873059 7.53525559462896 0 0 0
242 81 1 0.5897 2.333504417347978 17.513676351605767 7.259821764028773 0 0 0
559 187 2 -1.1794 0.3378115648604251 19.001140517801343 9.157210626835624 0 0 0
558 186 1 0.5897 3.8273370675583553 18.190061165147732 10.112450229123333 0 0 0
543 181 1 0.5897 2.551096478601891 15.370822754582987 6.727887214652665 0 0 0
243 81 1 0.5897 1.4539715091385312 18.625905608725386 7.789789412154295 0 0 0
555 185 1 0.5897 3.548441441456393 19.0285894926013 8.042988146882674 0 0 0
553 185 2 -1.1794 4.0729337706547115 19.44424526060182 8.727322124301601 0 0 0
542 181 1 0.5897 2.344746523875543 15.391876757111255 8.227501311516479 0 0 0
561 187 1 0.5897 0.6902112511409241 19.883602620108874 9.271606226938882 0 0 0
224 75 1 0.5897 4.753274108300797 17.91293848727526 5.687234722638631 0 0 0
24 8 1 0.5897 1.9960898562137315 19.527615203614786 5.400421792836806 0 -1 0
552 184 1 0.5897 0.8614891531886717 17.51038038447966 10.225795018397728 0 0 0
866 289 1 0.5897 3.3651117569134965 15.670676791351653 14.429353746371085 0 0 0
551 184 1 0.5897 2.1088830617713867 17.185297008212693 11.019587410957387 0 0 0
556 186 2 -1.1794 3.744238716511821 17.49704504991806 10.767370364084638 0 0 0
565 189 2 -1.1794 2.179487941466079 18.4797078054572 14.099485109994596 0 0 0
566 189 1 0.5897 2.072103636664775 17.543197577717706 13.9340260833183 0 0 0
642 214 1 0.5897 0.3105256577256481 15.063246611227544 11.72354772732595 1 0 0
865 289 2 -1.1794 2.5271569049397025 15.769811350949835 13.977489804448687 0 0 0
879 293 1 0.5897 4.012063255234068 18.880368257147065 14.899825987036659 0 0 0
550 184 2 -1.1794 1.1553488292286236 17.105071560316947 11.041596523768277 0 0 0
567 189 1 0.5897 2.1082681564234664 18.885706716948796 13.235630136428293 0 0 0
885 295 1 0.5897 0.8024235569388717 19.03467490509521 14.940148196727963 0 0 0
867 289 1 0.5897 1.873565841743943 15.497107890626769 14.621406045408667 0 0 0
548 183 1 0.5897 4.986015100590873 17.762132360540164 12.126048094072733 0 0 0
563 188 1 0.5897 2.3998668232424762 15.100777536331728 12.238815715101234 0 0 0
557 186 1 0.5897 4.157599381833718 16.734260798851732 10.363202879702786 0 0 0
874 292 2 -1.1794 0.9452478158738254 17.499404499409472 17.603101134751746 0 0 0
882 294 1 0.5897 3.905231150437443 16.24318625040872 17.235484590857176 0 0 0
895 299 2 -1.1794 0.6340696484391888 15.4570067921151 15.890334166458652 0 0 0
891 297 1 0.5897 2.039812973819891 18.90800798983056 19.643544443485304 0 0 0
880 294 2 -1.1794 3.790108384299059 17.170130223156363 17.444045501367953 0 0 0
881 294 1 0.5897 2.8655947034504425 17.250363057662618 17.67850774769449 0 0 0
875 292 1 0.5897 0.7102484294593269 18.16533112815708 16.957047185990206 0 0 0
897 299 1 0.5897 0.7163994458020783 16.10502965120624 16.589901461990436 0 0 0
878 293 1 0.5897 4.351191111508034 18.41780621581974 16.300826315612333 0 0 0
876 292 1 0.5897 0.2985958680691459 17.603399354744607 18.301109661452543 0 0 0
889 297 2 -1.1794 2.3039160927167646 18.466178774244945 20.450523444654074 0 0 0
877 293 2 -1.1794 4.616115923667336 19.041273005495125 15.624688865213457 0 0 0
883 295 2 -1.1794 0.179058754315232 19.405630972067136 15.564636237313609 0 0 0
218 73 1 0.5897 2.4039769401483504 16.724171714427513 20.47040972910448 0 0 -1
68 23 1 0.5897 8.841976916970411 1.9445810969951198 1.646375375556752 0 0 0
34 12 2 -1.1794 5.663911930219382 2.4472394525483727 0.5724459377314117 0 0 0
67 23 2 -1.1794 8.059484046697317 1.575581683806447 2.0559111074353575 0 0 0
69 23 1 0.5897 7.332034130490092 1.9225494974015584 1.5395711785352606 0 0 0
47 16 1 0.5897 8.243171263510048 3.192384558303668 3.1023499427670274 0 0 0
46 16 2 -1.1794 8.383631296241527 4.074088119126299 3.447124553640269 0 0 0
48 16 1 0.5897 7.852581333760711 4.108079987417811 4.242757849295333 0 0 0
58 20 2 -1.1794 8.706538146788835 0.7481968810348958 5.077427717911908 0 0 0
37 13 2 -1.1794 9.760591904191482 2.7401349609926644 0.24981179083491617 0 0 0
9 3 1 0.5897 5.543963170308787 3.9739440895293177 4.730563586047061 0 0 0
41 14 1 0.5897 9.992051848299983 1.2662742196205603 4.006490408774068 0 0 0
391 131 2 -1.1794 7.2782879609501645 1.819835179639545 9.032589406024991 0 0 0
7 3 2 -1.1794 6.288640346332237 4.128005417907812 5.311875292107359 0 0 0
358 120 2 -1.1794 5.230712273896886 2.740175504586043 7.486129082980613 0 0 0
392 131 1 0.5897 8.114181200149638 1.992433425177456 8.599409888727898 0 0 0
362 121 1 0.5897 9.273791303077754 3.354830049226438 6.9226253959511395 0 0 0
361 121 2 -1.1794 9.30898398481816 2.441349571712072 7.206021468077909 0 0 0
359 120 1 0.5897 5.6678147456095935 2.6003432661230774 8.326134049634371 0 0 0
8 3 1 0.5897 5.989057239547627 3.828532716169003 6.170221361972941 0 0 0
360 120 1 0.5897 5.57629404484381 2.0516284210502445 6.918178606156593 0 0 0
393 131 1 0.5897 7.242724522941612 0.8669392129211881 9.114452155648937 0 0 0
28 10 2 -1.1794 6.001158765825825 0.7381421455160397 5.62448724069093 0 0 0
59 20 1 0.5897 8.98743426132778 1.343793437089091 5.772041278169275 0 0 0
29 10 1 0.5897 6.935392339240133 0.8130280928232712 5.4302934977690125 0 0 0
61 21 2 -1.1794 9.435181546212542 5.033882070423484 6.62422193714953 0 0 0
384 128 1 0.5897 8.994237725749803 1.3556559779999648 11.379683857019073 0 0 0
332 111 1 0.5897 5.212886580679592 4.884150801966747 12.063640485334524 0 0 0
682 228 2 -1.1794 5.350787534628326 2.952128591110847 14.483513743255848 0 0 0
386 129 1 0.5897 8.83593582130952 4.895128597009582 13.485680622636126 0 0 0
684 228 1 0.5897 5.6142978117608475 3.7095119654267847 13.961027641914514 0 0 0
383 128 1 0.5897 8.837374401833939 1.8432370820209172 12.804282061297261 0 0 0
353 118 1 0.5897 6.755021306552712 1.0003333257528761 12.53123751186161 0 0 0
685 229 2 -1.1794 9.136392276330104 2.9537052163044732 14.115700394862658 0 0 0
686 229 1 0.5897 8.589943511809215 2.755874640829237 14.876231368487835 0 0 0
372 124 1 0.5897 7.150964079236106 4.2761106949053245 11.380825111820267 0 0 0
382 128 2 -1.1794 8.500888658482811 1.196302831996184 12.184315891160157 0 0 0
354 118 1 0.5897 5.688646900816626 1.7464493487424313 13.304451159120147 0 0 0
352 118 2 -1.1794 5.810652744286165 1.0270439037242771 12.685050277510996 0 0 0
370 124 2 -1.1794 7.768085448301158 4.030413185711128 10.691628976209941 0 0 0
377 126 1 0.5897 9.664559318555957 4.265215037813423 10.750949642700636 0 0 0
331 111 2 -1.1794 6.030205797306493 4.874465107480889 12.56172571176915 0 0 0
371 124 1 0.5897 7.488685478884292 3.156297385686075 10.419840276976727 0 0 0
655 219 2 -1.1794 5.996428302295721 4.714813428684692 19.17475266437495 0 0 0
708 236 1 0.5897 7.8367102323247595 1.0519020605970224 18.716898252577913 0 0 0
716 239 1 0.5897 7.344910189163223 1.2571291302384027 16.248173687024668 0 0 0
657 219 1 0.5897 6.874289087542346 4.4377247531299595 18.912552155422915 0 0 0
676 226 2 -1.1794 5.868333660864047 0.22546164108420327 19.260766664072506 0 0 0
689 230 1 0.5897 9.73983270343873 0.9367015969159199 16.95825211795548 0 0 0
711 237 1 0.5897 9.601868888170863 4.598711939899074 20.31423954944222 0 0 0
715 239 2 -1.1794 7.326572035308766 2.212549904974938 16.195127933981787 0 0 0
677 226 1 0.5897 5.273996858927933 0.48371466397342 18.556332924210984 0 0 0
695 232 1 0.5897 8.282650895668262 3.2107008058074684 17.383611983187137 0 0 0
694 232 2 -1.1794 8.397950618222131 4.02312998902956 17.876264304415244 0 0 0
706 236 2 -1.1794 8.784668951871485 0.9287751205955138 18.76567439868662 0 0 0
696 232 1 0.5897 8.126139742741444 4.7119640480518274 17.2698957230414 0 0 0
38 13 1 0.5897 9.51868770155623 2.136295450097967 19.839043984760565 0 0 -1
35 12 1 0.5897 5.79955104282043 1.6682220450896321 20.32455325955609 0 0 -1
656 219 1 0.5897 5.442650231974512 4.499350171130273 18.42436992891495 0 0 0
36 12 1 0.5897 5.622205408933693 3.168873250962224 20.236464027976623 0 0 -1
717 239 1 0.5897 6.52883721624362 2.410379313370805 15.704531139732234 0 0 0
707 236 1 0.5897 8.895045016370954 0.09176724150074378 19.2165296532472 0 0 0
175 59 2 -1.1794 7.657130973794841 8.857653507570937 2.166820965940154 0 0 0
55 19 2 -1.1794 7.3102522442201545 6.159293615660172 1.5727469012483615 0 0 0
56 19 1 0.5897 6.41244693570464 5.8450036764867885 1.466250049148275 0 0 0
177 59 1 0.5897 7.495989041760202 7.916258424974561 2.1054266481494532 0 0 0
710 237 1 0.5897 8.653811365567714 5.717268378241772 0.39907095954526745 0 0 1
176 59 1 0.5897 8.321510221202603 9.031365528463398 1.500031734175373 0 0 0
57 19 1 0.5897 7.719507456366638 5.522715042060003 2.1587147063133942 0 0 0
143 48 1 0.5897 6.002083202201606 8.651617685231107 1.389432364807366 0 0 0
136 46 2 -1.1794 6.054794730717773 6.895606949784192 5.143288216266928 0 0 0
142 48 2 -1.1794 5.276606403285399 8.668945844141724 0.7652628783337764 0 0 0
138 46 1 0.5897 6.959143612777289 7.05213378964566 4.87153605921111 0 0 0
166 56 2 -1.1794 8.821229349019685 7.266889665703861 4.8607947696404175 0 0 0
338 113 1 0.5897 5.509843516716088 5.815274749265532 8.189883252069468 0 0 0
168 56 1 0.5897 9.069354629250775 8.004028268926797 5.418593482969673 0 0 0
466 156 2 -1.1794 5.4105900220413465 8.82823755592333 7.160080743571608 0 0 0
62 21 1 0.5897 8.75184389203478 5.232394762573843 7.264409432154156 0 0 0
499 167 2 -1.1794 7.487736022642015 8.272842113383257 8.952419029994266 0 0 0
501 167 1 0.5897 6.73230567739918 8.486145676220307 8.404673343101111 0 0 0
469 157 2 -1.1794 9.082849001051468 9.44764032538065 6.739450770881041 0 0 0
500 167 1 0.5897 7.697952913755646 9.09180330644056 9.400898394571831 0 0 0
470 157 1 0.5897 8.605515413848602 8.99414098872549 7.434150005516716 0 0 0
380 127 1 0.5897 7.641967943223728 6.43363223257939 8.781379706231217 0 0 0
467 156 1 0.5897 5.493668013168463 8.083797103966166 6.564359413370224 0 0 0
379 127 2 -1.1794 7.390825097981914 5.548644111099246 8.517341428045535 0 0 0
381 127 1 0.5897 7.3704241499043635 5.0511198555919385 9.334781472431883 0 0 0
167 56 1 0.5897 9.053094324474676 6.491169868494316 5.371242646976328 0 0 0
137 46 1 0.5897 6.031164851836991 5.967341279717353 5.375131294803516 0 0 0
793 265 2 -1.1794 9.377490587104358 8.968148232188472 13.6872526044361 0 0 0
460 154 2 -1.1794 6.442277830806082 7.512144483222654 11.814962270342159 0 0 0
462 154 1 0.5897 5.678789224257064 7.647762247822595 11.253802614985732 0 0 0
790 264 2 -1.1794 5.5999889625583466 9.09874190225422 13.90853306383322 0 0 0
387 129 1 0.5897 9.099505569996426 6.267963983224623 12.905028573953086 0 0 0
791 264 1 0.5897 5.92677255590454 8.78834146151594 14.752949786861322 0 0 0
490 164 2 -1.1794 9.06291673601547 7.004356667590227 11.343452696679922 0 0 0
491 164 1 0.5897 9.618743950732988 7.565525749921416 10.802863697501238 0 0 0
492 164 1 0.5897 8.175061151036989 7.328197101576534 11.191734740375916 0 0 0
794 265 1 0.5897 9.152560741617359 8.45907313526674 12.908567149398564 0 0 0
461 154 1 0.5897 6.269117653561954 8.04743171937583 12.589316150537849 0 0 0
333 111 1 0.5897 6.199897553881232 5.794760226178638 12.762359196500308 0 0 0
705 235 1 0.5897 8.119358219242999 5.75263223574537 15.209061246102797 0 0 0
795 265 1 0.5897 9.068307063845667 9.852849990941971 13.493040240145602 0 0 0
385 129 2 -1.1794 9.096895394385282 5.782891276123002 13.73014900841622 0 0 0
824 275 1 0.5897 8.161919389124739 8.64764873019795 15.128121077724925 0 0 0
823 275 2 -1.1794 7.476053863657028 8.469396761306385 15.771554328208449 0 0 0
815 272 1 0.5897 9.129573180278996 6.7447171707920015 18.726573775125125 0 0 0
816 272 1 0.5897 8.961952135618029 8.202936396096165 19.096424924211178 0 0 0
784 262 2 -1.1794 5.98832478038417 7.473514194211166 18.71448726307799 0 0 0
825 275 1 0.5897 7.583213024003988 7.542861481547443 15.986040844099783 0 0 0
786 262 1 0.5897 6.9002433172231825 7.723172275484303 18.56531569901246 0 0 0
814 272 2 -1.1794 8.75568023034078 7.567366623388388 18.41115970228416 0 0 0
785 262 1 0.5897 6.025763064537615 6.539464552010357 18.919701667584782 0 0 0
144 48 1 0.5897 5.568301666578263 8.113053798231103 20.33410708868712 0 0 -1
703 235 2 -1.1794 7.5606366630925885 5.720424861134199 15.985599784591097 0 0 0
804 268 1 0.5897 7.547231466330603 9.874588696525874 16.8594617869123 0 0 0
145 49 2 -1.1794 9.346028594715138 9.442472812536208 20.465885557036643 0 0 -1
709 237 2 -1.1794 9.410215458990908 5.519706860746127 20.13813243110824 0 0 0
704 235 1 0.5897 6.69180586229071 5.503937638711603 15.64730473569667 0 0 0
164 55 1 0.5897 7.071404544059488 12.30739674113367 2.8639553293300035 0 0 0
245 82 1 0.5897 5.634108674511683 14.546721237241544 4.857128413847406 0 0 0
276 92 1 0.5897 8.336330880507834 14.070095317073818 4.145296581450893 0 0 0
165 55 1 0.5897 5.978694288536767 12.960212845459166 2.044557313345106 0 0 0
156 52 1 0.5897 8.53620797914297 11.352651483002857 3.8959972406769663 0 0 0
163 55 2 -1.1794 6.925821930838237 12.963823380921367 2.1828134982797858 0 0 0
154 52 2 -1.1794 7.606389931328023 11.191985785312651 4.056557657115301 0 0 0
275 92 1 0.5897 9.827471366016495 14.316941328187129 4.059622715133209 0 0 0
818 273 1 0.5897 8.231034228546285 12.543048532814547 0.9630883395512794 0 0 1
285 95 1 0.5897 7.629355221748478 14.672056364471334 2.5261398012597858 0 0 0
116 39 1 0.5897 6.312580717111911 11.058798740889388 5.265972831840713 0 0 0
274 92 2 -1.1794 9.16570879165139 13.849145959365792 4.5689237195715195 0 0 0
252 84 1 0.5897 5.581393913679439 14.941005558215458 0.32482822232485903 0 0 0
155 52 1 0.5897 7.4575701180669745 10.30272161380521 3.7355671284754046 0 0 0
817 273 2 -1.1794 8.882398890623993 12.077901148662251 0.438187401339677 0 0 1
146 49 1 0.5897 8.964204298038107 10.319283599483365 0.21228270393265092 0 0 0
170 57 1 0.5897 8.812894069540432 12.503178031884733 5.821806953232956 0 0 0