LAMMPS data file via write_data, version 30 Jul 2021, timestep = 750000

972 atoms
2 atom types
648 bonds
1 bond types
324 angles
1 angle types

0.011027262756957867 19.988973737241885 xlo xhi
-0.0541806481687761 20.054181648168623 ylo yhi
-0.18065891557690072 20.88065691557488 zlo zhi

Masses

1 1.008
2 15.999

Pair Coeffs # lj/cut/tip4p/long/omp

1 0 0
2 0.21084 3.1668

Bond Coeffs # harmonic/omp

1 450 0.9572

Angle Coeffs # harmonic/omp

1 55 104.52

Atoms # full

18 6 1 0.5897 4.4932660434784015 2.782708635978009 3.135957864066075 0 0 0
23 8 1 0.5897 2.5111659569581173 0.4646177330450274 4.090988427535527 0 0 0
33 11 1 0.5897 1.5131978162831219 1.9387278541878683 1.4473217564112635 0 0 0
16 6 2 -1.1794 4.34336269315332 3.6889062383416653 3.4052686810837747 0 0 0
236 79 1 0.5897 0.7964779562335967 -0.0171997350087335 1.8679177428128915 0 1 0
31 11 2 -1.1794 0.7388544645915806 1.8755116150344142 2.006487186859215 0 0 0
10 4 2 -1.1794 1.6386366262259051 3.824141334257469 3.5974510089219467 0 0 0
11 4 1 0.5897 1.258803657777268 3.1226875023309533 3.0684377783375405 0 0 0
12 4 1 0.5897 2.5500715508347027 3.5612285788622344 3.725975539331056 0 0 0
3 1 1 0.5897 3.7607214626516234 2.3921301870890788 0.2623881203416046 0 0 0
4 2 2 -1.1794 4.008307139700632 0.7513764899231397 2.871723602859983 0 0 0
32 11 1 0.5897 0.03006191137743629 2.2415126002703394 1.4774318206644546 0 0 0
17 6 1 0.5897 4.431468408965155 4.19668530826213 2.598721784833573 0 0 0
22 8 2 -1.1794 1.7086213450601107 0.5067419177465705 4.611036166302905 0 0 0
6 2 1 0.5897 4.742478264117489 0.8526114737377226 3.477427880477136 0 0 0
1 1 2 -1.1794 2.8236325012728827 2.383033113564035 0.06705146252738661 0 0 0
5 2 1 0.5897 4.20541137770857 -0.05054301200151201 2.387736978354966 0 0 0
2 1 1 0.5897 2.620248543011616 3.286366871401998 -0.17547993010047236 0 0 0
356 119 1 0.5897 1.6539733820086118 2.098935387783845 8.291741880241817 0 0 0
355 119 2 -1.1794 1.0405773546558348 2.003134127536593 9.020265459913706 0 0 0
330 110 1 0.5897 4.453513706365981 0.43383916149596685 9.061739687269897 0 0 0
325 109 2 -1.1794 2.6331729032382287 2.3663702459659137 6.742099055633099 0 0 0
326 109 1 0.5897 2.4872860059334734 1.733313078734203 6.039182933006014 0 0 0
327 109 1 0.5897 3.5852516979610307 2.450366909241412 6.795668753856306 0 0 0
328 110 2 -1.1794 4.443416251851021 1.2973930816693142 9.474377917467653 0 0 0
27 9 1 0.5897 2.4654547530110924 4.2428051579693005 6.6078044237174485 0 0 0
341 114 1 0.5897 4.5137535921891185 3.22555360794634 9.825002205623885 0 0 0
342 114 1 0.5897 4.506553573609729 4.722325542003974 9.598334844404091 0 0 0
357 119 1 0.5897 0.1960344256942924 2.274311001434313 8.660349342096497 0 0 0
561 187 1 0.5897 0.887769836557506 0.3324825834900795 8.933452729544351 0 1 0
81 27 1 0.5897 0.08741557514414566 4.483371876168744 5.218907409681365 1 0 0
329 110 1 0.5897 4.8549567945894365 1.1605223820712307 10.327608615593398 0 0 0
340 114 2 -1.1794 4.242208305426199 4.050696548170953 10.226968676442516 0 0 0
651 217 1 0.5897 2.417094442299283 2.363553120861597 14.52307305884339 0 0 0
348 116 1 0.5897 2.894430454761014 0.7224298819838986 11.28335350966649 0 0 0
650 217 1 0.5897 2.5522257239876325 2.0174060338126716 13.05560539206213 0 0 0
350 117 1 0.5897 2.52368851161281 4.633080662413965 13.784751833843574 0 0 0
336 112 1 0.5897 2.669478662765569 4.138287735100407 10.803642991889392 0 0 0
347 116 1 0.5897 1.4222814151730456 0.7170924428564782 11.636889305801423 0 0 0
346 116 2 -1.1794 2.2942991558940893 0.6439295857982714 12.024893097385473 0 0 0
649 217 2 -1.1794 2.721459152107313 2.7165177186269287 13.687067378505846 0 0 0
683 228 1 0.5897 4.658744093230194 2.8878607741069446 14.246504276920907 0 0 0
334 112 2 -1.1794 1.737912936587023 3.9687600878195592 10.944394426049739 0 0 0
335 112 1 0.5897 1.6057373948669718 3.0757604777171124 10.626170092123935 0 0 0
680 227 1 0.5897 0.30392225195269207 2.2445388813685425 15.304312855132036 0 0 0
405 135 1 0.5897 0.19419375366009314 4.590460822948927 11.972639585196326 1 0 0
652 218 2 -1.1794 4.634132188742809 1.0692065908990538 17.160643717086245 0 0 0
653 218 1 0.5897 3.8255252507805766 0.8974427604229193 17.643266953696923 0 0 0
672 224 1 0.5897 1.577240724896263 0.8638973725006261 18.832030128949143 0 0 0
659 220 1 0.5897 1.0806194275394279 3.982447614663223 18.181415544167848 0 0 0
654 218 1 0.5897 4.653520859720278 0.3981309000095706 16.47844239209722 0 0 0
681 227 1 0.5897 1.1787021874314014 2.487853575579438 16.51564760804301 0 0 0
664 222 2 -1.1794 4.408086530772273 3.839679174597602 17.398254560604805 0 0 0
665 222 1 0.5897 3.451493379372176 3.842171983221242 17.434061691763063 0 0 0
666 222 1 0.5897 4.640477628363946 2.9223559849405487 17.254314267371655 0 0 0
670 224 2 -1.1794 2.525150154982689 0.9587905884684127 18.926039010506862 0 0 0
671 224 1 0.5897 2.6345188631013094 1.5469577781232076 19.67318410711384 0 0 0
658 220 2 -1.1794 1.5146022148360352 4.0490299022187415 17.330911543780637 0 0 0
884 295 1 0.5897 0.978095434219934 0.1545191086788147 15.66223245603787 0 1 0
660 220 1 0.5897 1.181623957149634 4.86377735798559 16.954837002218746 0 0 0
679 227 2 -1.1794 1.0909140260655366 1.9255269429748758 15.746094967735404 0 0 0
109 37 2 -1.1794 2.505993005249002 9.513583538415373 0.2452555249245224 0 0 0
126 42 1 0.5897 4.007924709982557 9.633667276943719 2.918702587376628 0 0 0
14 5 1 0.5897 3.839883762248553 5.55521673390094 0.5615549078816953 0 0 0
110 37 1 0.5897 1.9275658858590583 9.162909112020499 0.9224723764070466 0 0 0
113 38 1 0.5897 4.422110178010695 7.69229619124878 3.5939926816288548 0 0 0
15 5 1 0.5897 4.199489181644801 6.383335742441044 1.7766976115523956 0 0 0
141 47 1 0.5897 0.7209367880842045 7.517684810610821 2.0558375036560714 0 0 0
139 47 2 -1.1794 0.826579006759775 8.469004434528673 2.0501472583943587 0 0 0
112 38 2 -1.1794 3.7513828956238906 7.618457018215836 2.91512025052585 0 0 0
19 7 2 -1.1794 0.7740797668511823 5.801997350433264 1.808401085574227 0 0 0
114 38 1 0.5897 2.967583138479238 7.329323694095761 3.3823742774606314 0 0 0
674 225 1 0.5897 1.7672905831814039 5.34806135510279 0.3163893175276918 0 0 1
140 47 1 0.5897 1.3668166921894922 8.65507438118689 2.8180694965978077 0 0 0
111 37 1 0.5897 3.3884977851628877 9.304724543352778 0.5515517414428731 0 0 0
13 5 2 -1.1794 4.45068071858268 5.593723948943856 1.29752635588036 0 0 0
20 7 1 0.5897 1.0950116845229858 5.205748773553587 2.4848815112485814 0 0 0
132 44 1 0.5897 0.8129852444887941 7.001671524524343 4.917976730327941 0 0 0
130 44 2 -1.1794 1.717031822711017 7.012995538327246 4.603451381388862 0 0 0
131 44 1 0.5897 2.113242548629065 6.228891048651007 4.983451324838336 0 0 0
26 9 1 0.5897 1.9252267364894975 5.414813012141795 7.399160959347859 0 0 0
437 146 1 0.5897 4.083638803436623 7.170151757095937 9.43008077588174 0 0 0
438 146 1 0.5897 4.077204060514627 8.60673372000577 9.907523468780854 0 0 0
337 113 2 -1.1794 4.689034147321372 6.050521089375515 8.362475820939968 0 0 0
463 155 2 -1.1794 0.6626392402880167 8.3893468734605 9.38378139848783 0 0 0
344 115 1 0.5897 1.2216358737412663 4.979917698506742 9.466004618726812 0 0 0
25 9 2 -1.1794 2.616088544895572 5.171682220838463 6.782849838189281 0 0 0
345 115 1 0.5897 0.8618439822028544 6.3923952093821566 9.057015864029163 0 0 0
464 155 1 0.5897 1.2528104255507686 8.601947334809083 8.660800089226864 0 0 0
435 145 1 0.5897 2.5526875715349053 8.213472544782308 6.510973946852441 0 0 0
436 146 2 -1.1794 3.8140909436975523 7.722777199707022 10.163628421138949 0 0 0
343 115 2 -1.1794 0.8219698718974043 5.484202177694861 8.757395079403999 0 0 0
467 156 1 0.5897 4.604283405550587 8.802226503739856 7.523937601957394 0 0 0
339 113 1 0.5897 4.15664115324897 5.62949362969217 7.687598407652575 0 0 0
433 145 2 -1.1794 2.571182869094897 8.93806090510133 7.13608469085564 0 0 0
434 145 1 0.5897 2.391119374837159 9.715593487085114 6.607699455720487 0 0 0
443 148 1 0.5897 1.0505878338377859 9.869888185620216 10.063028840291057 0 0 0
533 178 1 0.5897 0.0447062260801733 7.768059128295461 12.076096282369248 1 0 0
757 253 2 -1.1794 2.762037066773311 9.74330495303259 14.26054863960076 0 0 0
454 152 2 -1.1794 1.9103688894913649 7.837241997518372 12.290936947016396 0 0 0
455 152 1 0.5897 2.4502436062367963 7.7685797932715435 11.503540914881633 0 0 0
456 152 1 0.5897 2.1495049770651216 7.071645509480169 12.813280837805797 0 0 0
759 253 1 0.5897 2.518053564412851 9.236191020123382 13.486315045945556 0 0 0
789 263 1 0.5897 1.2917233307346256 9.219786450349499 15.297742346815202 0 0 0
792 264 1 0.5897 4.533440225324097 9.192678513188849 14.537353387450496 0 0 0
668 223 1 0.5897 1.2345726103716983 5.887633063919645 15.292916145525114 0 0 0
351 117 1 0.5897 3.41309086771124 5.608214014632391 14.526341984092838 0 0 0
349 117 2 -1.1794 2.5702957111353277 5.543315052145887 14.077147771864341 0 0 0
661 221 2 -1.1794 4.966558061208207 5.998371253977218 15.572214062200096 0 0 0
663 221 1 0.5897 4.538439900044595 6.601775050843313 16.17948983498421 0 0 0
780 260 1 0.5897 3.0564994967787724 7.594588475655189 18.58726262462823 0 0 0
778 260 2 -1.1794 2.324104360813796 7.592494422157041 19.203591668691217 0 0 0
788 263 1 0.5897 0.8547386028192024 9.695695261420038 16.66675060114131 0 0 0
779 260 1 0.5897 2.5447785172373236 8.271869877791435 19.840703997582295 0 0 0
673 225 2 -1.1794 2.2678478184099156 5.201497769466203 20.575140332504738 0 0 0
761 254 1 0.5897 4.161954567232318 8.910014930836166 17.31341285204317 0 0 0
760 254 2 -1.1794 4.331259343406669 7.973760133379493 17.41815001290405 0 0 0
787 263 2 -1.1794 0.626466739214997 9.07885594045592 15.971375993554881 0 0 0
675 225 1 0.5897 2.2007803610624928 6.027444603787181 20.096252982379063 0 0 0
669 223 1 0.5897 0.6013189847783273 7.116163210190518 15.910545872712548 0 0 0
667 223 2 -1.1794 0.48266656440368566 6.171405791483552 15.812889554197247 0 0 0
858 286 1 0.5897 0.39131291683531094 7.675069187407714 18.607768892120788 1 0 0
220 74 2 -1.1794 3.500906904046611 14.299459434490956 2.9775267462778348 0 0 0
246 82 1 0.5897 4.77859141484928 13.644184352986587 4.229782727070687 0 0 0
120 40 1 0.5897 1.1124007741060402 11.882963493706091 2.7634858650372016 0 0 0
118 40 2 -1.1794 1.3165020459695582 11.283555217370651 3.481254518831022 0 0 0
240 80 1 0.5897 2.46046607416241 14.170982413709009 4.48213881502323 0 0 0
119 40 1 0.5897 2.2689169246226966 11.19128262043962 3.453460960688991 0 0 0
122 41 1 0.5897 4.528183825785539 11.752828746676025 1.9370415108869512 0 0 0
124 42 2 -1.1794 4.138968256295268 10.560579346370382 3.118363271387532 0 0 0
123 41 1 0.5897 4.085418599757457 12.052747137051503 0.520839305781455 0 0 0
129 43 1 0.5897 0.7409160227849585 13.607239662611562 1.5985598559887053 0 0 0
783 261 1 0.5897 2.0805275019835294 12.401758158886635 -0.046730434037750124 0 0 1
127 43 2 -1.1794 0.6885622360703102 12.72136398734354 1.2398510046430107 0 0 0
222 74 1 0.5897 3.920378905069034 13.797478794811953 2.278790581460481 0 0 0
125 42 1 0.5897 4.76088206180918 10.563742167107042 3.845968790870951 0 0 0
121 41 2 -1.1794 4.688375468506741 12.346679646846558 1.2036779321456186 0 0 0
188 63 1 0.5897 0.01587861451799693 11.06007902128795 4.750971639581499 1 0 0
133 45 2 -1.1794 2.547246257289514 11.623284399121712 6.496252589027205 0 0 0
134 45 1 0.5897 1.7585389798200017 11.91446395634066 6.953906618500453 0 0 0
135 45 1 0.5897 3.2701576649372397 11.954691661058263 7.028985992929074 0 0 0
445 149 2 -1.1794 4.677343229138869 12.179798283248209 8.408712483355393 0 0 0
239 80 1 0.5897 2.1525992791869486 13.244625874360047 5.639169027345296 0 0 0
446 149 1 0.5897 4.347323420726091 12.89661768781688 8.950420658013531 0 0 0
468 156 1 0.5897 4.773782487166084 10.276518216294244 7.8230951593004985 0 0 0
573 191 1 0.5897 0.30486900274673323 14.508587985832571 9.231888207171924 0 0 0
450 150 1 0.5897 4.315115894405362 11.30838120544673 10.008648670373923 0 0 0
451 151 2 -1.1794 0.595838407184396 12.828439129170992 8.636627698417886 0 0 0
453 151 1 0.5897 0.5853285832192403 12.178836234244324 9.339511508869403 0 0 0
544 182 2 -1.1794 3.9454177179757166 14.240812298043885 10.008741101998016 0 0 0
238 80 2 -1.1794 1.8572427664449653 14.05050744666393 5.215486580954739 0 0 0
564 188 1 0.5897 2.108442144957531 14.897269374052883 12.24975417296148 0 0 0
562 188 2 -1.1794 1.856517361374743 14.209908140270162 11.633119762962863 0 0 0
442 148 2 -1.1794 1.344405265609668 10.675990788724812 10.487355815618729 0 0 0
563 188 1 0.5897 2.0850224944599547 13.393427629133374 12.07733854520798 0 0 0
457 153 2 -1.1794 2.5475770024810354 12.35490296770086 13.478409807709738 0 0 0
458 153 1 0.5897 1.7970000118672467 12.751111083739548 13.921050556731894 0 0 0
459 153 1 0.5897 3.2878094197520693 12.526836871232385 14.060441435839582 0 0 0
545 182 1 0.5897 3.2789714850213767 14.194970978282804 10.694285733296228 0 0 0
769 257 2 -1.1794 4.382341282688909 12.723849688659518 15.477800346259519 0 0 0
546 182 1 0.5897 4.777741801536438 14.20409395203199 10.480111067423298 0 0 0
449 150 1 0.5897 4.641463735835089 10.777648424106374 11.388260600472737 0 0 0
758 253 1 0.5897 2.715823662341085 10.65552081822799 13.974360302671199 0 0 0
444 148 1 0.5897 2.2981247666014513 10.655384227547378 10.407572320933536 0 0 0
642 214 1 0.5897 0.10366491967434496 14.504787716873683 11.84497433684529 1 0 0
512 171 1 0.5897 0.055714097641032946 11.143046513133001 12.063078520861602 1 0 0
448 150 2 -1.1794 4.076761612118551 10.621648828593289 10.63133424361745 0 0 0
766 256 2 -1.1794 1.063161472239234 11.05559400245385 17.69672399468123 0 0 0
767 256 1 0.5897 0.6473305917355207 11.168199926370804 18.551445607034246 0 0 0
768 256 1 0.5897 0.9235463922397242 11.890595578892476 17.250113025655942 0 0 0
869 290 1 0.5897 3.3370907423689102 14.377560564725586 18.076452094692748 0 0 0
774 258 1 0.5897 3.957377991873875 11.321605467915449 16.67509401868835 0 0 0
886 296 2 -1.1794 1.7714842170845975 14.230068539828316 18.82936662717038 0 0 0
965 322 1 0.5897 0.12219154659784574 13.946917387952356 18.94840674834571 1 0 0
773 258 1 0.5897 2.788486686563299 10.829605515527323 17.50190139296484 0 0 0
888 296 1 0.5897 2.0786550961414543 13.424773446239394 19.245692446410224 0 0 0
772 258 2 -1.1794 3.724523838730014 10.691352065738457 17.356787531924233 0 0 0
870 290 1 0.5897 4.827298992086935 14.117170350946724 18.13719378233757 0 0 0
868 290 2 -1.1794 4.148099158147147 14.50234188694555 17.58351472411767 0 0 0
782 261 1 0.5897 2.82085465669734 11.182391967710023 20.507691933984802 0 0 0
781 261 2 -1.1794 2.638229338538025 12.098345564345262 20.298269413301952 0 0 0
887 296 1 0.5897 1.9496867584218145 14.915935303596536 19.472772034251776 0 0 0
771 257 1 0.5897 4.2757774356925085 13.470653577067262 16.0669061527097 0 0 0
775 259 2 -1.1794 0.9219958305101038 13.09122957843815 15.8463574579278 0 0 0
777 259 1 0.5897 0.7530715274379536 14.029025297490042 15.93678233846729 0 0 0
764 255 1 0.5897 4.8546871616987 11.271138837014302 18.81052132131692 0 0 0
776 259 1 0.5897 0.058819050266730954 12.70517888078551 15.697284950930305 0 0 0
890 297 1 0.5897 1.9700440172653446 19.114289859116504 0.1575790849448377 0 0 1
233 78 1 0.5897 4.481737344806409 17.52341047293819 2.9361245425987783 0 0 0
221 74 1 0.5897 3.9304567056628468 15.154399772687057 2.949876028263956 0 0 0
235 79 2 -1.1794 0.7167464538064082 19.228224627038607 1.4615348511272752 0 0 0
226 76 2 -1.1794 1.4221952778619107 17.566158942505666 3.6789788087043584 0 0 0
227 76 1 0.5897 1.174433781773001 18.07397622133773 2.90640893878329 0 0 0
228 76 1 0.5897 0.7876135104863817 17.82249741431407 4.3481714147744865 0 0 0
247 83 2 -1.1794 0.8296641000226869 15.318175071671511 2.0893966684741296 0 0 0
248 83 1 0.5897 0.8234927664437283 15.916167976582265 2.836717675564802 0 0 0
232 78 2 -1.1794 4.310373968787762 16.874021203798584 3.618093722142193 0 0 0
234 78 1 0.5897 3.3675053419845864 16.931878118327596 3.7731275537983726 0 0 0
249 83 1 0.5897 1.3982285071946203 15.742733383317837 1.4470309643320955 0 0 0
230 77 1 0.5897 4.142649922396988 18.673145895882243 0.6469991481494586 0 0 0
229 77 2 -1.1794 4.638558973193932 18.630585687051287 1.4645127620090381 0 0 0
241 81 2 -1.1794 2.1414104979018966 18.611355578109624 6.489929478085442 0 0 0
242 81 1 0.5897 2.0291337115018844 17.66549567132528 6.584440514103282 0 0 0
243 81 1 0.5897 1.6720967838197673 18.984463892923742 7.236058724280908 0 0 0
542 181 1 0.5897 1.7411780502713583 15.743024850932137 7.786944019084385 0 0 0
559 187 2 -1.1794 0.8196535111876022 19.501638795548615 8.7619305828227 0 0 0
572 191 1 0.5897 0.54112828075355 15.745077766427334 10.072725667083759 0 0 0
558 186 1 0.5897 3.910012787574926 17.55590793868342 9.78827297063783 0 0 0
555 185 1 0.5897 3.7586257255082636 18.774908180180304 7.655488314518784 0 0 0
541 181 2 -1.1794 2.3826056580677717 15.913314328889841 7.09720637303877 0 0 0
576 192 1 0.5897 4.199560596060927 15.435201300667254 7.2739728874931755 0 0 0
557 186 1 0.5897 4.082077531537456 16.07492368433219 10.050740170940138 0 0 0
543 181 1 0.5897 2.0404557301406614 15.451126574526263 6.332070899554763 0 0 0
571 191 2 -1.1794 0.1352985342323258 15.450275878807513 9.257536997984639 0 0 0
553 185 2 -1.1794 4.226448184323196 18.849776183771034 8.487170808267297 0 0 0
24 8 1 0.5897 1.8150463875521108 19.93127763721745 5.272247648072527 0 -1 0
551 184 1 0.5897 1.2776208543852006 18.265540526975954 10.290428141388137 0 0 0
867 289 1 0.5897 1.8477160055359896 15.812311710158859 14.450440534899537 0 0 0
879 293 1 0.5897 3.9688892318699716 18.768686806087494 14.903970028164178 0 0 0
556 186 2 -1.1794 3.82556738700966 16.893978715894598 10.474465481460946 0 0 0
565 189 2 -1.1794 2.688552531116599 18.708289238133155 13.737972286191194 0 0 0
566 189 1 0.5897 2.5984560961636687 17.830648678269867 13.366789618722224 0 0 0
865 289 2 -1.1794 2.4830990233147574 15.956343191212644 13.749194291773492 0 0 0
866 289 1 0.5897 3.3354310696044185 15.854836942275945 14.17286381918944 0 0 0
552 184 1 0.5897 1.958177027147031 17.196526421603586 11.118590611505834 0 0 0
567 189 1 0.5897 2.388242478336647 19.29456579394303 13.043550895594024 0 0 0
550 184 2 -1.1794 1.1027417342007058 17.589558954336354 10.945115876504506 0 0 0
885 295 1 0.5897 1.4132804648418018 19.138431851586347 14.746861636579945 0 0 0
877 293 2 -1.1794 4.692974172777568 18.929642160251497 15.508998106083212 0 0 0
883 295 2 -1.1794 0.827080633781009 19.33597368100898 15.477306117638483 0 0 0
874 292 2 -1.1794 1.1702476201658083 17.8823288465059 17.960066983867087 0 0 0
897 299 1 0.5897 0.8262689353732328 16.360873123559244 16.79110141215115 0 0 0
876 292 1 0.5897 0.8613084563420619 18.36012676780907 17.190380748207282 0 0 0
882 294 1 0.5897 3.9640174148093523 16.304220648696983 17.58997548149049 0 0 0
880 294 2 -1.1794 4.001791063415553 17.253489145976253 17.706873425122396 0 0 0
881 294 1 0.5897 3.129403243019656 17.491501799877952 18.020940312053774 0 0 0
218 73 1 0.5897 2.333156144094304 16.93998787156439 20.3636869116266 0 0 -1
889 297 2 -1.1794 2.6924359479021103 18.929007794300524 20.618833487709125 0 0 0
217 73 2 -1.1794 2.407641280320297 16.036233415678325 20.670042875207734 0 0 -1
891 297 1 0.5897 2.5457095048957945 19.516995011004973 19.877967229075246 0 0 0
875 292 1 0.5897 0.41790808158407156 17.86844175894879 18.55173306808925 0 0 0
895 299 2 -1.1794 0.6916545975383053 15.815338246720874 16.016246077426963 0 0 0
219 73 1 0.5897 3.339566376393945 15.922177525588989 20.856785781182836 0 0 -1
878 293 1 0.5897 4.617510790289238 18.23538794236123 16.163564280784456 0 0 0
250 84 2 -1.1794 4.991626601480952 15.699744239911288 20.856649557256347 0 0 -1
68 23 1 0.5897 8.445468886618581 2.040014912565687 1.6070670408199788 0 0 0
48 16 1 0.5897 7.430224613293291 4.578029891782457 4.269561018089555 0 0 0
67 23 2 -1.1794 7.634790635012748 1.994655989121597 2.1140074027716707 0 0 0
46 16 2 -1.1794 7.828899388101766 4.45767363089674 3.407803199122311 0 0 0
47 16 1 0.5897 7.6386434425017065 3.5475711758657593 3.1803846127778037 0 0 0
53 18 1 0.5897 9.659517551224878 4.091207905742821 3.8298015976269904 0 0 0
69 23 1 0.5897 6.9554511467916775 2.289206577143913 1.507406875798555 0 0 0
34 12 2 -1.1794 5.528187254558408 2.6310953755344633 0.43668974500587765 0 0 0
36 12 1 0.5897 5.790831100513281 3.4133628680413106 -0.04831627376336131 0 0 0
37 13 2 -1.1794 9.38110298888149 1.937465940630313 -0.06537634562547567 0 0 0
273 91 1 0.5897 7.538419023219616 0.3140551440542207 1.6354653980460716 0 1 0
9 3 1 0.5897 5.461790655187563 4.628077434070305 4.546783452433652 0 0 0
41 14 1 0.5897 9.779652632794015 0.7471338651631465 3.9386585519201365 0 0 0
29 10 1 0.5897 6.32826818571757 0.7160660891125719 4.946562788630413 0 0 0
391 131 2 -1.1794 7.622256195008585 1.9364273832019283 8.772280021278329 0 0 0
361 121 2 -1.1794 9.278343767232425 2.742747514289712 6.5963287103727755 0 0 0
393 131 1 0.5897 7.426064972190021 1.0073564625359492 8.892804666654259 0 0 0
392 131 1 0.5897 8.010576461547927 1.9883964890884638 7.899031714202808 0 0 0
59 20 1 0.5897 8.569074148957524 1.4674291249509415 5.6991928769228295 0 0 0
362 121 1 0.5897 9.241586698524566 3.6862495078875237 6.439357591058946 0 0 0
359 120 1 0.5897 6.065436372773272 2.5758137191577712 7.652600134592781 0 0 0
358 120 2 -1.1794 5.398892172464027 2.7199955806224194 6.980924890081147 0 0 0
360 120 1 0.5897 5.507378333961125 1.9877107785645185 6.374184410910019 0 0 0
8 3 1 0.5897 5.887783615939965 4.16534973403751 5.923750864682645 0 0 0
371 124 1 0.5897 7.735001775833013 3.0920702817444456 10.208768189013597 0 0 0
28 10 2 -1.1794 5.383567058119246 0.6521647171135698 5.087381298399453 0 0 0
377 126 1 0.5897 9.839609603357838 3.5834456890003907 10.080433668976237 0 0 0
7 3 2 -1.1794 5.980657397005379 4.891266818187636 5.306842908887924 0 0 0
60 20 1 0.5897 8.478602966594696 -0.035834161040625645 5.853571381415962 0 0 0
58 20 2 -1.1794 8.187902193457163 0.6868046662388531 5.297273196055823 0 0 0
353 118 1 0.5897 6.324839586766811 0.8426653485617408 11.760047470138748 0 0 0
686 229 1 0.5897 8.752577798891261 2.4337783429380595 14.213844208817857 0 0 0
372 124 1 0.5897 7.5238854217324755 4.22864665513316 11.186166399211967 0 0 0
386 129 1 0.5897 9.384360369745856 4.424010136606163 13.44899536053957 0 0 0
384 128 1 0.5897 8.847038425724504 0.32736587151038854 11.098326913166131 0 0 0
332 111 1 0.5897 5.3659663123713734 4.295183117578792 11.603738871207126 0 0 0
331 111 2 -1.1794 6.0133795433978445 4.519871814304715 12.272022741684584 0 0 0
382 128 2 -1.1794 8.08628889453037 0.507261774552253 11.650751352106646 0 0 0
717 239 1 0.5897 6.709800567401556 2.1499710776151204 15.53347190814914 0 0 0
383 128 1 0.5897 8.38412513755683 1.1869952164376294 12.25524122963994 0 0 0
685 229 2 -1.1794 9.216632912242883 2.269538320626898 13.392993620279665 0 0 0
354 118 1 0.5897 5.453598666809985 1.4158496464897836 12.857395090351432 0 0 0
352 118 2 -1.1794 5.414135106382654 0.9066700498635686 12.04790384766529 0 0 0
684 228 1 0.5897 5.969744782880687 3.3129640987227837 13.619869468744954 0 0 0
682 228 2 -1.1794 5.573343150766128 2.622020462184165 14.15057872126932 0 0 0
370 124 2 -1.1794 8.123269786902572 3.913603931986773 10.509624759679308 0 0 0
696 232 1 0.5897 8.003962371475197 4.765106594342567 16.951740380760533 0 0 0
706 236 2 -1.1794 9.131585341339553 0.0782846118262665 18.6010350365802 0 0 0
677 226 1 0.5897 5.935947047024486 1.0086707685017098 18.65598984522761 0 0 0
656 219 1 0.5897 5.699357255723695 4.311149929883255 18.78236695519088 0 0 0
657 219 1 0.5897 7.1075156022520805 4.254919918565989 19.33563614439406 0 0 0
38 13 1 0.5897 9.187112881953244 1.1836072970260896 20.438977277552 0 0 -1
708 236 1 0.5897 8.177328349378849 0.08609073978833057 18.676618977315563 0 0 0
716 239 1 0.5897 7.570897597221358 0.9517763800525367 15.87223865241525 0 0 0
694 232 2 -1.1794 8.237533003113167 4.033122822864499 17.522546674259594 0 0 0
695 232 1 0.5897 8.083168485683323 3.253755471473317 16.98875951834119 0 0 0
710 237 1 0.5897 9.292959754115355 3.927810571710476 20.817389030870537 0 0 0
676 226 2 -1.1794 6.193006866618914 0.81758442761555 19.557922126170496 0 0 0
655 219 2 -1.1794 6.216101690384099 4.522151031116573 19.559951864595703 0 0 0
715 239 2 -1.1794 7.575245361024484 1.908909958858075 15.863963458755881 0 0 0
709 237 2 -1.1794 9.235160953287949 4.8831431778313314 20.80569113564883 0 0 0
35 12 1 0.5897 5.577791874016567 1.922810371974318 20.8561441743681 0 0 -1
55 19 2 -1.1794 7.2235205017143675 6.015120785801751 1.2392517788555846 0 0 0
57 19 1 0.5897 7.392314134679424 5.627107079443123 2.0977804495338113 0 0 0
177 59 1 0.5897 8.070887027672667 8.940904109123107 1.2194616274983723 0 0 0
142 48 2 -1.1794 5.153547758653442 9.209152530354189 0.2216600590861293 0 0 0
56 19 1 0.5897 6.278815735734795 5.922437834947401 1.1155101603213438 0 0 0
176 59 1 0.5897 7.296923014096732 7.8163272763995915 1.8737467234846439 0 0 0
143 48 1 0.5897 5.820296765295796 9.158792134418002 0.9065979936604778 0 0 0
175 59 2 -1.1794 7.404503559278134 8.76736593564255 1.8843035953506675 0 0 0
711 237 1 0.5897 8.4204463094265 5.079928778287609 0.20675168410855582 0 0 1
166 56 2 -1.1794 8.426832164458926 7.860618721637999 4.995893074191119 0 0 0
149 50 1 0.5897 9.83797419624488 7.988240452470016 3.500880212905061 0 0 0
145 49 2 -1.1794 9.45305874730674 9.23012401245584 0.014619545930365657 0 0 0
138 46 1 0.5897 6.654584476009052 7.70341485537975 5.071672596963908 0 0 0
466 156 2 -1.1794 5.264289403962938 9.457865862235765 7.749301043544537 0 0 0
381 127 1 0.5897 7.973490114025405 5.276145694781639 9.112363528045947 0 0 0
168 56 1 0.5897 8.729602720497978 8.472183619640216 5.667072155257954 0 0 0
469 157 2 -1.1794 9.232607245688733 9.492214926596846 6.974533706305777 0 0 0
499 167 2 -1.1794 7.4272250385965854 8.72270988060832 9.233739187095036 0 0 0
470 157 1 0.5897 8.844365225832577 9.03231621421069 7.718759178835535 0 0 0
379 127 2 -1.1794 7.48074483156909 5.815286593481396 8.493714016301604 0 0 0
500 167 1 0.5897 7.415251248877363 9.418098762183103 9.89133644307606 0 0 0
61 21 2 -1.1794 9.212964370806018 5.346600540830801 6.210710640832199 0 0 0
380 127 1 0.5897 7.591058922855077 6.710325188445883 8.814511673421164 0 0 0
501 167 1 0.5897 6.64642952449674 8.880847295626452 8.70304668093466 0 0 0
338 113 1 0.5897 5.583502181194796 5.765605083392633 8.175125102175906 0 0 0
62 21 1 0.5897 8.438033193376272 5.321584563513809 6.772059556646825 0 0 0
137 46 1 0.5897 5.59416210237288 6.67913552659416 5.415707358857612 0 0 0
136 46 2 -1.1794 5.724914522679933 7.618056754672545 5.283304068298614 0 0 0
63 21 1 0.5897 9.939366271251334 5.5131401783690785 6.811426997277172 0 0 0
167 56 1 0.5897 8.653012075394484 6.996231276380212 5.339212343465913 0 0 0
793 265 2 -1.1794 8.91499917288249 9.358928239168062 14.122031038578687 0 0 0
491 164 1 0.5897 9.291424622570176 7.906310233971586 11.412074700329573 0 0 0
794 265 1 0.5897 8.867608245006352 8.797541568013202 13.348265792935193 0 0 0
461 154 1 0.5897 6.044060588301329 7.811758412988857 12.770905481068553 0 0 0
460 154 2 -1.1794 6.178751398474625 7.34158009919283 11.948158783570637 0 0 0
387 129 1 0.5897 9.458988440671677 5.93496546492135 13.392165133978677 0 0 0
490 164 2 -1.1794 8.901047293349885 7.4482907061677865 12.156364814039488 0 0 0
790 264 2 -1.1794 5.488129885622841 9.199143245251495 14.467280032527645 0 0 0
492 164 1 0.5897 7.98581029014418 7.320664794086281 11.90653285109061 0 0 0
385 129 2 -1.1794 9.472452106285676 5.198921356012228 14.003884227735835 0 0 0
333 111 1 0.5897 6.060587999689837 5.47560784497723 12.248697400462584 0 0 0
791 264 1 0.5897 5.794956508803025 9.244431086767873 15.3727701876821 0 0 0
462 154 1 0.5897 5.393316644029155 7.528219502625804 11.433808665214444 0 0 0
705 235 1 0.5897 8.193406480161892 5.900905445071992 15.107031216896614 0 0 0
704 235 1 0.5897 6.78126946291403 6.202796162178449 15.561937327083823 0 0 0
824 275 1 0.5897 8.13124023294925 9.057234197292102 15.597995969092116 0 0 0
762 254 1 0.5897 5.0786986086037045 7.93027295016658 18.014557461603104 0 0 0
825 275 1 0.5897 7.532350625016894 7.946234345553821 16.433918766978067 0 0 0
816 272 1 0.5897 9.443612356662996 7.762733530962487 19.70225938757725 0 0 0
784 262 2 -1.1794 6.33187881560093 7.420207967214805 19.242447301806543 0 0 0
785 262 1 0.5897 6.1666205073111 6.504378753019483 19.466364476929883 0 0 0
786 262 1 0.5897 7.269254659666059 7.455299766002444 19.05174202314719 0 0 0
814 272 2 -1.1794 9.296096177588273 7.0991856167131715 19.028398788747204 0 0 0
815 272 1 0.5897 9.418928198093896 6.265203530025916 19.481793593703784 0 0 0
703 235 2 -1.1794 7.679894995787785 6.126064673040636 15.88278361260503 0 0 0
823 275 2 -1.1794 7.552380633192745 8.89889110531046 16.34363282740278 0 0 0
144 48 1 0.5897 5.51982942944671 8.70803301560902 20.554367978121796 0 0 -1
662 221 1 0.5897 5.0852887010788015 5.193827579206479 16.076978472937547 0 0 0
164 55 1 0.5897 6.564245390434241 12.54391844896012 1.8211613139196103 0 0 0
276 92 1 0.5897 8.851722883727971 14.361064327834761 4.079877839928359 0 0 0
819 273 1 0.5897 8.539413870081818 12.326334499551932 0.5280621563147314 0 0 1
165 55 1 0.5897 7.802168999340886 12.441076381283695 2.6866034538608523 0 0 0
154 52 2 -1.1794 8.141714073374537 11.080165735401152 3.9028389098843297 0 0 0
163 55 2 -1.1794 7.398899545232884 12.975955814354558 2.002899744556521 0 0 0
156 52 1 0.5897 9.054422625136294 10.95699706046534 4.163625699874413 0 0 0
285 95 1 0.5897 7.0017187336039255 14.908233665443223 1.852627729164955 0 0 0
155 52 1 0.5897 7.928540165960303 10.295827527848438 3.3973389820125766 0 0 0
244 82 2 -1.1794 5.545819435627124 13.599773127849025 4.800440001969456 0 0 0
817 273 2 -1.1794 9.141605207956793 11.943758606299825 -0.11007450479894397 0 0 1
275 92 1 0.5897 7.435994523461051 14.028212796155934 4.500711683679107 0 0 0
274 92 2 -1.1794 8.292279497606604 14.273181754302836 4.851551328086202 0 0 0