LAMMPS (30 Jul 2021)
Processor partition = 0
  using 4 OpenMP thread(s) per MPI task
using multi-threaded neighbor list subroutines
variable        pid world 0 1
variable        phase world IceII IceIh

shell cd ${phase}
shell cd IceII
include Restart.lmp
echo both
log log.lammps
#include		in.partitions
include		in.temp
variable        temperature equal 37.60
variable	tempDamp equal 100.0
include		in.pressure
variable        pressure equal 2002.3
variable        pressureDamp equal 1000.0 # This is 1 ps
include		in.seed
variable        seed equal 745823

units		real
atom_style	full
box tilt large
read_restart	restart.lmp.${pid}
read_restart	restart.lmp.0
Reading restart file ...
  restart file = 30 Jul 2021, LAMMPS = 30 Jul 2021
  restoring atom style full from restart
  triclinic box = (-10.547452 -9.1970023 0.14585701) to (12.527452 12.187000 21.714142) with tilt (-9.1058807 1.7660236 2.8850606)
  2 by 2 by 4 MPI processor grid
  restoring pair style lj/cut/tip4p/long/omp from restart
  restoring bond style harmonic/omp from restart
  restoring angle style harmonic/omp from restart
  1296 atoms
  864 bonds
  432 angles
Finding 1-2 1-3 1-4 neighbors ...
  special bond factors lj:    0        0        0       
  special bond factors coul:  0        0        0       
     2 = max # of 1-2 neighbors
     1 = max # of 1-3 neighbors
     1 = max # of 1-4 neighbors
     2 = max # of special neighbors
  special bonds CPU = 0.001 seconds
  read_restart CPU = 0.005 seconds
include 	in.setup
variable	out_freq equal 1000
variable	out_freq2 equal 10000
variable	out_freq3 equal 1000

timestep	2.0

neigh_modify    delay 7 every 1

include		in.tip4p
# This is TIP4P/Ice

# create groups ###
group ox type 2
432 atoms in group ox
group hy type 1
864 atoms in group hy

# set charges - beside manually ###
set group ox charge -1.1794
Setting atom values ...
  432 settings made for charge
set group hy charge 0.5897
Setting atom values ...
  864 settings made for charge

# ### TIP3P Potential Parameters ###
pair_style lj/cut/tip4p/long/omp 2 1 1 1 0.1577 8.5
pair_coeff 1 1*2 0.000 0.000
pair_coeff 2 2 0.21084 3.1668
bond_style  harmonic
bond_coeff  1 450 0.9572
angle_style harmonic
angle_coeff 1 55 104.52
kspace_style pppm/tip4p/omp 1.0e-5
pair_modify tail yes

thermo          ${out_freq}
thermo          1000
thermo_style    custom step temp pe etotal epair emol press lx ly lz vol pxx pyy pzz pxy pxz pyz enthalpy

restart 	${out_freq3} restart.lmp.${pid} restart2.lmp.${pid}
restart 	1000 restart.lmp.${pid} restart2.lmp.${pid}
restart 	1000 restart.lmp.0 restart2.lmp.${pid}
restart 	1000 restart.lmp.0 restart2.lmp.0


include         in.dump
dump            myDump all atom ${out_freq2} dump.water.${pid}
dump            myDump all atom 10000 dump.water.${pid}
dump            myDump all atom 10000 dump.water.0
dump            myDump2 all dcd ${out_freq2} dump.dcd
dump            myDump2 all dcd 10000 dump.dcd
dump_modify     myDump append yes
dump_modify     myDump2 append yes


variable natoms 	equal  "count(all)"                        # NUMBER ATOMS
variable H      	equal  "enthalpy/v_natoms"                 # ENTHALPY-per-atom
variable Vol      	equal  "vol/v_natoms"                 # volume-per-atom
fix AVG all 		ave/time ${out_freq} 1 ${out_freq} v_Vol v_H file vol_enthalpy.dat
fix AVG all 		ave/time 1000 1 ${out_freq} v_Vol v_H file vol_enthalpy.dat
fix AVG all 		ave/time 1000 1 1000 v_Vol v_H file vol_enthalpy.dat


timer           timeout 10:00:00 every 1000
New timer settings: style=normal  mode=nosync  timeout=10:00:00

fix 		1 all shake 1e-6 200 0 b 1 a 1
Finding SHAKE clusters ...
       0 = # of size 2 clusters
       0 = # of size 3 clusters
       0 = # of size 4 clusters
     432 = # of frozen angles
  find clusters CPU = 0.000 seconds
fix             2 all nph tri ${pressure} ${pressure} ${pressureDamp}
fix             2 all nph tri 2002.3 ${pressure} ${pressureDamp}
fix             2 all nph tri 2002.3 2002.3 ${pressureDamp}
fix             2 all nph tri 2002.3 2002.3 1000
fix             3 all temp/csvr ${temperature} ${temperature} ${tempDamp} ${seed}
fix             3 all temp/csvr 37.6 ${temperature} ${tempDamp} ${seed}
fix             3 all temp/csvr 37.6 37.6 ${tempDamp} ${seed}
fix             3 all temp/csvr 37.6 37.6 100 ${seed}
fix             3 all temp/csvr 37.6 37.6 100 745823


run             250000
PPPM initialization ...
  extracting TIP4P info from pair style
  using 12-bit tables for long-range coulomb (../kspace.cpp:340)
  G vector (1/distance) = 0.36832799
  grid = 27 40 32
  stencil order = 5
  estimated absolute RMS force accuracy = 0.0043213545
  estimated relative force accuracy = 1.3013631e-05
  using double precision FFTW3
  3d grid and FFT values/proc = 10353 2240
Last active /omp style is kspace_style pppm/tip4p/omp
Neighbor list info ...
  update every 1 steps, delay 7 steps, check yes
  max neighbors/atom: 2000, page size: 100000
  master list distance cutoff = 10.8154
  ghost atom cutoff = 10.8154
  binsize = 5.4077, bins = 7 5 4
  1 neighbor lists, perpetual/occasional/extra = 1 0 0
  (1) pair lj/cut/tip4p/long/omp, perpetual
      attributes: half, newton on, omp
      pair build: half/bin/newton/tri/omp
      stencil: half/bin/3d/tri
      bin: standard
Setting up Verlet run ...
  Unit style    : real
  Current step  : 40750000
  Time step     : 2
  Walltime left : 9:59:59.97
Per MPI rank memory allocation (min/avg/max) = 12.67 | 12.68 | 12.69 Mbytes
Step Temp PotEng TotEng E_pair E_mol Press Lx Ly Lz Volume Pxx Pyy Pzz Pxy Pxz Pyz Enthalpy 
40750000    38.954097   -6924.4103   -6824.2032   -6924.4103            0    2113.3267    23.074904    21.384003    21.568285    10642.521    2678.4574    1782.9847     1878.538    -237.6266    350.26175    436.14092   -6496.1932 
40751000    37.495656   -6926.7398   -6830.2845   -6926.7398            0    2055.6902    23.219084    21.201687    21.636234    10651.166    2227.7534    2262.7008    1676.6164   -462.39242   -135.09245   -61.116041   -6510.9611 
40752000    38.100483   -6928.1668   -6830.1556   -6928.1668            0    2009.8112    23.106678    21.341239    21.577092    10640.206     2097.581    1921.1063    2010.7464   -126.38405    367.82934   -128.44083   -6518.2801 
40753000    38.544419   -6930.8993   -6831.7461   -6930.8993            0    1989.2853      23.2172    21.221832    21.609625    10647.311    1691.4195    2357.9044     1918.532   -30.484483    146.06294   -92.802894   -6522.8497 
40754000    36.337913   -6929.9502   -6836.4731   -6929.9502            0    2132.4992    23.100426    21.360253     21.55741    10637.093    2268.5064    2116.4806    2012.5107   -299.53271    369.28152   -217.02067   -6505.6562 
40755000    37.021527   -6927.2211   -6831.9855   -6927.2211            0    2071.9971    23.200262    21.234791    21.623974     10653.11     1704.062    2496.7996    2015.1295    351.84957   -578.54783    124.81337   -6510.0703 
40756000    37.952814   -6927.0965   -6829.4652   -6927.0965            0    1748.7448     23.12617     21.33791    21.618064    10667.739    1720.4747    1805.8685     1719.891    148.31147    331.54923   -27.182618   -6557.3989 
40757000    37.099538   -6928.8261   -6833.3898   -6928.8261            0    2178.0785    23.177773    21.291426    21.575129    10647.064    2293.0562    2020.9774     2220.202   -37.837873   -274.74534   -189.81942   -6495.1854 
40758000    37.281257   -6926.6259   -6830.7222   -6926.6259            0    1907.6648    23.146191    21.309914     21.61524    10661.573    2221.9863    1534.4318    1966.5763   -231.64317    -54.11938   -11.026721    -6534.103 
40759000    40.004171   -6928.7066   -6825.7983   -6928.7066            0    1815.4521    23.161729    21.297388    21.605769    10657.787    1914.7497    1624.0886    1907.5181     505.9962   -4.1791891   -73.004916   -6543.6173 
40760000    38.059803   -6928.0764   -6830.1698   -6928.0764            0    1830.6816    23.196757    21.267871    21.590384    10651.522    1563.7717    2057.3238    1870.9493   -332.49719   -155.91996   -408.50281    -6545.789 
40761000    37.825968   -6928.0482   -6830.7432   -6928.0482            0    1910.4386    23.126995    21.308251    21.614096    10651.336    1940.9908    1998.5524    1791.7725   -94.909029    408.00416     73.72419    -6533.978 
40762000    37.957999   -6922.9839   -6825.3393   -6922.9839            0    2055.1142      23.1935    21.224428    21.637802    10651.614    2073.4438    2649.3939    1442.5048   -73.480613    421.43679   -489.43909   -6506.0919 
40763000     38.05018   -6924.6489   -6826.7671   -6924.6489            0    2559.8647    23.068924     21.35181    21.564457     10621.86    2793.1611    2542.6428    2343.7902   -57.636519   -251.63013    -246.9982   -6430.2212 
40764000    37.526365   -6932.1995   -6835.6652   -6932.1995            0    2362.0231     23.21251    21.210101    21.598186    10633.644    2169.5237    2553.1147    2363.4307   -97.435082   -352.16464    70.403382   -6469.3608 
40765000    37.757697   -6927.9685   -6830.8392   -6927.9685            0    2294.8004    23.109359     21.35641    21.556463    10638.825     2123.916    2122.0349    2638.4503    522.70949    339.65435    210.84916   -6474.7863 
40766000    37.463257   -6928.2175   -6831.8455   -6928.2175            0    2135.4931    23.244959    21.198192    21.594909    10640.915     2000.901     2559.001    1846.5772    152.91629   -291.93281    -141.5919   -6500.4451 
40767000    38.373044   -6929.1908   -6830.4785   -6929.1908            0    1980.0614    23.119431    21.351714    21.561875    10643.793    2489.0056    1615.5306     1835.648   -8.4248292    233.03977   -61.336724    -6523.116 
40768000    36.790863   -6931.3427   -6836.7005   -6931.3427            0    1367.0095    23.346975    21.191359     21.57861    10676.106    933.11167    1712.5674    1455.3495   -163.55097   -319.58313     5.864247    -6623.857 
40769000    37.506163   -6928.6703   -6832.1879   -6928.6703            0    1923.9634    23.111476    21.400901    21.529035    10648.399    2629.8214    1200.8912    1941.1775   -294.54975    75.244762    24.291697   -6533.4042 
40770000    39.424327   -6935.6146    -6834.198   -6935.6146            0    1762.7234    23.241451    21.236531    21.591903    10657.068    2126.2579    1511.4114    1650.5008    13.278079   -273.51745   -289.89999   -6560.2313 
40771000    36.344461   -6930.4249    -6836.931   -6930.4249            0     1838.186    23.102528    21.406843    21.530644    10648.027    1820.8319    1735.4277    1958.2985    530.76609   -33.952112   -406.83813   -6551.4781 
40772000    37.570433   -6927.1062   -6830.4585   -6927.1062            0     1671.391    23.249363    21.247396    21.583364    10661.932    1319.8783    1903.5578     1790.737    8.9470641     94.03411    223.67775   -6570.5683 
40773000    37.976578   -6930.8867   -6833.1942   -6930.8867            0    2116.9745    23.085574    21.398329     21.54037    10640.786    1910.0753    2047.0459    2393.8024     672.4337   -166.12384    263.06911   -6504.6717 
40774000    40.215808   -6924.3623   -6820.9096   -6924.3623            0    1816.3539    23.223282    21.242854    21.596623    10654.236    1267.8397    2297.5384    1883.6835   -214.75627   -175.98907   -215.65992   -6538.6826 
40775000    38.288649   -6923.6687   -6825.1735   -6923.6687            0    2116.7922    23.140891    21.293531    21.610677    10648.689    1991.9588    2391.3632    1967.0547   -37.204435    338.41767   -51.943823   -6496.4352 
40776000    39.216811   -6926.8277   -6825.9449   -6926.8277            0    2185.1747    23.191366    21.273635    21.565264    10639.539     2409.603     2151.276    1994.6452    42.954935     76.33981   -185.75456   -6486.8784 
40777000    37.611183   -6925.8934   -6829.1409   -6925.8934            0    2022.3003    23.184966     21.30469    21.549025    10644.109    2208.9772    1645.8677    2212.0559    67.190076   -324.37848   -60.724493   -6515.2123 
40778000    36.120688   -6929.8863    -6836.968   -6929.8863            0    1765.1486    23.121473    21.311929    21.635304    10661.082    1851.7884    1680.6067    1763.0506    4.5496926     435.1678    53.022282   -6562.5211 
40779000    36.657809   -6930.0767   -6835.7767   -6930.0767            0     1855.262     23.15285     21.25639    21.650258    10655.088    1841.1225    2137.5899    1587.0737    550.49988   -67.373951    6.8472707    -6547.481 
40780000    38.137426   -6923.6575   -6825.5513   -6923.6575            0      2219.21    23.117739    21.367131    21.528379    10634.153    2490.3138    1759.1025    2408.2138   -21.691823    0.8913359   -165.90985    -6481.378 
40781000    38.204422   -6926.3812   -6828.1027   -6926.3812            0    1605.3904    23.222824    21.249143    21.608949    10663.262     1316.345    1953.0379    1546.7882   -211.52858   -20.928936    153.18233    -6578.444 
40782000    38.057439   -6926.2591   -6828.3587   -6926.2591            0     1655.296     23.11984    21.339386    21.614163    10663.632    1677.6527    1404.7721    1883.4631    430.68637    69.451074    492.06017   -6570.9301 
40783000    36.239284   -6925.6142   -6832.3908   -6925.6142            0    1616.7921    23.223272    21.267341    21.603851    10670.083    1424.4186     1712.619    1713.3387   -279.60942   -474.85664    -347.0647   -6580.7982 
40784000    37.836078   -6930.2057   -6832.8747   -6930.2057            0    1763.1529     23.08947    21.381957    21.589891    10658.887    2549.4936    1183.7398    1556.2252   -183.59041   -162.11482   -79.558178   -6558.7944 
40785000    37.393859   -6932.0271   -6835.8337   -6932.0271            0    2049.7765    23.215907    21.208138     21.63733    10653.489    2065.6375    2490.5981     1593.094   -563.11594   -29.211808    108.31107   -6517.3595 
40786000    36.582517   -6928.9837   -6834.8774   -6928.9837            0    1746.4649    23.056418    21.428122    21.565928    10654.771    1944.2398    1577.8711    1717.2838    357.67595    169.79715   -48.710486   -6563.4961 
40787000    37.383753   -6927.1493   -6830.9818   -6927.1493            0    1474.1663    23.255792    21.224047    21.616599    10669.564    1453.6462    1792.2594    1176.5933    173.49929   -510.72816   -280.01731   -6601.5947 
40788000    37.102472   -6927.6166   -6832.1727   -6927.6166            0    1903.4753    23.063933    21.385392    21.599225    10653.413    2496.2675    1621.6275    1592.5309   -26.640442   -150.09527   -29.732126   -6536.4315 
40789000     37.81518     -6927.93   -6830.6528     -6927.93            0    1827.9997    23.234807    21.172698    21.665305    10658.107    1867.4208    2122.4689    1494.1093   -33.498751   -378.65304     166.6577   -6546.5129 
40790000    36.630935   -6929.1899    -6834.959   -6929.1899            0    1916.0632    23.100327    21.392255    21.540913    10644.832    1852.5724    1763.1028    2132.5144    321.84927     164.2805   -19.621872   -6537.5018 
40791000    37.321987   -6930.7137   -6834.7052   -6930.7137            0    1882.5054    23.233103    21.186307    21.647768    10655.543    1610.0582    2522.2434    1515.2146   -256.68352    80.253071    -2.560109   -6542.1635 
40792000    37.884934   -6930.0865   -6832.6298   -6930.0865            0    1505.9136    23.061013    21.352118    21.663289    10667.036    2208.8144    1306.5922    1002.3342    173.63913    67.919471   -105.49717   -6598.3582 
40793000    38.948868   -6929.6825   -6829.4889   -6929.6825            0    2029.6823    23.184235    21.215459     21.65155    10649.622     2330.237     2280.435    1478.3747   -361.63452   -360.96141    86.479207   -6514.2512 
40794000    38.410405   -6927.8119   -6829.0034   -6927.8119            0    2264.8256    23.088148    21.334678    21.585573    10632.583    2521.1432    2031.8378    2241.4958    -26.02731     265.2663     216.7974   -6477.8075 
40795000    34.859282   -6930.4714    -6840.798   -6930.4714            0    2379.1048    23.173275    21.229868    21.598473    10625.705    2163.1559    2402.4183    2571.7401   -124.83659    486.24313    415.22212     -6472.12 
40796000     37.99938   -6928.5193   -6830.7682   -6928.5193            0    1892.8931    23.110982    21.311986    21.631343    10654.321    2104.8457    1647.4288     1926.405   -43.145209   -398.77945    458.35755    -6536.646 
40797000     37.71264   -6932.7538   -6835.7403   -6932.7538            0    1899.4739    23.174759    21.211613     21.66762    10651.239    1670.6178    2233.9128     1793.891    126.37195    166.45675    132.77722    -6540.681 
40798000     39.19748   -6928.3581   -6827.5249   -6928.3581            0    1967.5099    23.145949    21.304449    21.604566    10653.464    2039.1306     1767.594    2095.8052   -252.84905    417.32687    40.125139   -6521.8332 
40799000    38.021414    -6926.979   -6829.1712    -6926.979            0    1891.2562    23.156511    21.277736    21.627885     10656.45    1971.3406    1917.2719    1785.1562    255.42145     -34.4385    17.636768   -6535.2446 
40800000    37.536446   -6927.7028   -6831.1425   -6927.7028            0    1781.3742    23.140387    21.301687    21.617217    10655.759    1802.4637    1829.1493    1712.5096   -384.14959    238.38473   -11.620532   -6554.3111 
40801000    39.393098   -6930.1868   -6828.8504   -6930.1868            0    1855.2244     23.11129    21.345752    21.588957    10650.434    1659.2648    1810.1575    2096.2509   -328.99632    259.77476    82.844297   -6540.6865 
40802000     36.89316   -6929.5171   -6834.6117   -6929.5171            0    2216.7506    23.169628    21.240661      21.6163    10638.207     2027.348    2037.0209     2585.883    168.09963     290.0851    207.63239   -6490.6887 
40803000    37.233803   -6930.7705   -6834.9888   -6930.7705            0    1822.3849    23.118518    21.303661    21.636515     10656.18    2087.6052    1959.6088    1419.9407    32.812366    244.66504    116.36487   -6551.7729 
40804000     37.24547   -6924.8777    -6829.066   -6924.8777            0    1898.0365    23.216786    21.251803    21.601879    10658.336    1493.9787    2141.7073    2058.4235   -365.21208    211.01072   -265.65296   -6534.0335 
40805000    37.444789   -6926.5692   -6830.2447   -6926.5692            0    1930.8257    23.130365    21.318252    21.615314    10658.489    1975.4696    2169.5991    1647.4085    168.13316    271.95928   -88.766974   -6530.1111 
40806000    39.059773    -6927.951   -6827.4721    -6927.951            0    1736.1362    23.208219    21.217649    21.668664    10670.167    1598.1131     2374.707    1235.5887      -654.43   -47.807094    210.65065    -6557.306 
40807000    36.683453   -6925.5614   -6831.1954   -6925.5614            0    2263.3448    23.073585    21.357138    21.594028    10641.229    2674.9061    1851.1863     2263.942   -32.681112    247.50735    176.24625   -6479.9438 
40808000    37.737087   -6929.7678   -6832.6915   -6929.7678            0    2085.0975    23.188768    21.261451     21.59565    10647.235    2166.9442     2116.748    1971.6003   -222.98017   -328.45472    17.539354   -6508.9196 
40809000    38.364777    -6929.382   -6830.6909    -6929.382            0    2036.1783    23.067341    21.391514    21.583252    10650.155    2501.7979     1638.125    1968.6121   -58.396366    -116.9264    -155.5303   -6514.4285 
40810000    37.939615   -6935.6597   -6838.0623   -6935.6597            0    1874.4261    23.214701    21.193183    21.655599    10654.412    1752.9444    2423.7392    1446.5947    392.81833   -425.45132   -132.09443   -6546.8071 
40811000    37.212765   -6927.5234   -6831.7959   -6927.5234            0    2112.6081    23.059469    21.426442    21.533727    10639.435    2584.4022    1225.6335    2527.7885    185.22009    95.352842    205.03854   -6503.9925 
40812000      38.6708   -6927.9743    -6828.496   -6927.9743            0    2347.1693    23.235602    21.189504    21.599323    10634.446    2239.5551    2403.6151    2398.3377    124.09891   -115.30644   -190.81656   -6464.4677 
40813000    39.039843   -6925.2795   -6824.8519   -6925.2795            0    1914.2571    23.115033    21.346269     21.58851    10652.196    2454.6781    1864.4543    1423.6388   -372.33971   -68.461477   -193.63566   -6527.4695 
40814000    37.290597   -6927.0292   -6831.1014   -6927.0292            0    2548.2211    23.243519    21.198356    21.568824    10627.486    2255.4225    3059.7072    2329.5335   -313.34521    128.61517   -18.507184   -6436.1501 
40815000    36.720712   -6932.3742   -6837.9124   -6932.3742            0    2065.1481    23.096149    21.391113    21.542786    10643.264    2655.9523    1162.3914    2377.1007    346.14227    386.47682    14.100694   -6517.3578 
40816000     39.19902   -6928.4707   -6827.6337   -6928.4707            0    1910.7076    23.209988    21.247495    21.626802    10665.347    1980.1874    2078.4026     1673.533      60.6348   -417.06287    39.405581   -6530.4362 
40817000    36.157827   -6930.7393   -6837.7255   -6930.7393            0    1760.8977    23.081972    21.368232    21.619442    10663.161    2156.5363    1342.0214    1784.1355   -128.63872   -91.940478    98.744303   -6563.8861 
40818000    36.924353   -6930.2459   -6835.2603   -6930.2459            0    1821.7884     23.19125    21.261535    21.621678    10661.251    1589.9054    2434.3663    1441.0935    71.434634   -166.69554    64.857385   -6552.0024 
40819000    36.613198   -6933.1102    -6838.925   -6933.1102            0    2097.6949    23.094984    21.341099    21.603736    10647.884    2244.6686     2171.164     1877.252    120.55688    286.53063    80.260006   -6513.1772 
40820000    37.108113   -6928.4948   -6833.0365   -6928.4948            0    1873.1472    23.176706    21.252403    21.631849    10654.998    1759.2547    2727.1093    1133.0775   -242.67778    63.477348   -781.49384   -6541.9639 
40821000    37.499626   -6926.9177   -6830.4522   -6926.9177            0    1850.7743     23.13569    21.312518    21.590326    10645.754    2252.7731    1831.9793    1467.5703     177.6775   -195.41034    -316.8843   -6543.1058 
40822000    38.252014   -6921.8964   -6823.4955   -6921.8964            0    2151.2695    23.157884     21.27284    21.594259    10638.065    2545.8164     1971.959    1936.0331   -593.07603   -13.252106     193.6349   -6489.7362 
40823000    36.180838   -6929.4889   -6836.4159   -6929.4889            0    1912.8468    23.171863    21.270811    21.593631    10643.162    1786.5809    2150.8764     1801.083   -170.36669   -176.64456   -148.62371   -6539.5045 
40824000    36.955701   -6928.1346   -6833.0683   -6928.1346            0    1859.0853    23.122788    21.321243    21.605371     10651.59    1779.0785    2161.7196    1636.4579    593.05222    418.42248   -259.05647   -6544.2733 
40825000     37.94645   -6929.8965   -6832.2816   -6929.8965            0    2341.9437    23.179393    21.270222    21.582212    10640.696    2084.9823    2401.8608    2538.9879   -261.24974    361.83313    136.65515   -6468.8502 
40826000    37.067849   -6926.6907   -6831.3359   -6926.6907            0    2481.8166    23.126209    21.315856    21.564739    10630.444    2777.8092    2450.5502    2217.0903    157.90159   -37.266386    -474.5245   -6446.5696 
40827000    37.288857   -6931.1191   -6835.1958   -6931.1191            0    2262.5022    23.226172    21.223967    21.597084    10646.315     1878.531    2484.2184    2424.7571    561.19994   -202.79504    75.845569   -6483.9071 
40828000    37.729282   -6922.7585   -6825.7022   -6922.7585            0    2355.0364    23.146028    21.341946     21.54285    10641.765     2520.214    2059.1821    2485.7129   -439.24851     292.9104    45.865934   -6460.2024 
40829000    36.395591   -6928.7543   -6835.1289   -6928.7543            0    2409.1179    23.254467    21.169339    21.605652    10636.067    2419.4652    2434.5503    2373.3383    -274.4883    262.74547    277.89782   -6461.4359 
40830000    37.838352     -6923.28   -6825.9431     -6923.28            0     2245.597    23.121812    21.330893    21.580396    10643.643    2090.2361    2566.5568    2079.9981    53.460755    20.292765   -159.94019   -6477.3667 
40831000    37.601932   -6931.7022   -6834.9736   -6931.7022            0    2167.2709    23.221033    21.236161    21.570959    10637.192    2025.3426    2368.8775    2107.5926   -246.23612   -429.12379   -409.65034   -6498.7593 
40832000    35.618084   -6925.4827   -6833.8573   -6925.4827            0    2475.9002    23.051715    21.330061    21.615203    10628.076    2858.6096    2326.5919    2242.4992      258.113    28.797029    393.59393   -6450.0938 
40833000    38.240338   -6931.9403   -6833.5694   -6931.9403            0    1821.0395    23.222559    21.213271    21.618811    10649.998     1244.465    2287.9701    1930.6834    253.75184    446.68008    136.15677   -6550.7268 
40834000    38.508068   -6923.0271   -6823.9675   -6923.0271            0    1750.1588    23.118232    21.421516    21.498927    10646.861    1785.4509    1368.8473     2096.178   -198.48064    519.73165    17.710164   -6552.2141 
40835000    37.742371   -6930.5198   -6833.4299   -6930.5198            0    1973.7667    23.260173    21.208812    21.577658    10644.704    1103.3853    2481.5085    2336.4063   -492.61051    127.67404    127.15089   -6527.0182 
40836000    38.596467   -6934.4251    -6835.138   -6934.4251            0    1795.7301    23.130624    21.316835    21.602879    10651.768     1765.668    1699.4535    1922.0689    552.90964   -127.73522    363.13629   -6556.1801 
40837000    36.583774   -6931.0493   -6836.9398   -6931.0493            0    1759.7597    23.274545    21.206242    21.599169    10660.607    1343.8405    1813.3231    2122.1156   -473.51095     799.6036   -317.10909   -6563.3429 
40838000    38.360992   -6929.5578   -6830.8765   -6929.5578            0    1815.8172    23.148509    21.370906    21.529123    10650.556    1918.6838    1173.0478    2355.7201   -747.27283    550.26458    313.21901   -6548.8303 
40839000    35.112676   -6929.7899   -6839.4646   -6929.7899            0    1674.8338    23.183751     21.23459    21.666266    10666.248    2260.7348    1541.6091    1222.1575   -49.781671   -470.80604    256.71932   -6578.9337 
40840000    36.345024   -6927.8576   -6834.3623   -6927.8576            0    2044.9221    23.099281    21.348168    21.589383    10646.315    2725.1312     1296.131     2113.504    363.91271   -437.93031    95.226769   -6516.8563 
40841000    37.405146   -6932.6666   -6836.4441   -6932.6666            0    2125.0401    23.188157    21.250711    21.588967    10638.283    2335.4692    1936.6502     2103.001   -733.99875   -261.45433   -74.591351   -6506.7474 
40842000    36.821299   -6926.5081   -6831.7875   -6926.5081            0    2174.4596    23.085011    21.327811    21.607283    10638.406    2967.4153    2147.0098    1408.9538     164.5826   -701.32498   -161.13919   -6494.4196 
40843000    36.953782   -6927.5005   -6832.4392   -6927.5005            0    2105.0045    23.200188    21.218267     21.63504    10650.233    1694.4065    2674.1713    1946.4356    212.78468    430.57989   -12.114662   -6505.4841 
40844000    38.600575   -6929.6698   -6830.3722   -6929.6698            0    1665.3254    23.075345    21.414947    21.559318    10653.694    1818.4275    1121.9031    2055.6457   -593.92419    263.52517    413.60544   -6571.6253 
40845000    36.146608   -6932.2794   -6839.2945   -6932.2794            0    1864.4923    23.172589    21.217123    21.670018    10654.188    2181.4602    2115.3203    1296.6964   -307.97847   -34.990973     181.0646   -6549.5889 
40846000    38.747191   -6927.1007    -6827.426   -6927.1007            0    2205.6136    23.078581    21.339682    21.618019    10646.649    2531.2544    1827.6348    2257.9516    63.059149   -162.08909    432.16616   -6484.9593 
40847000    38.184125   -6929.7745   -6831.5481   -6929.7745            0    2229.2069     23.15542    21.273722    21.588628      10634.6      2484.16    2239.7632    1963.6974   -102.54944   -470.46018    -133.7015   -6485.8099 
40848000    36.684905   -6932.1607    -6837.791   -6932.1607            0    2143.6631    23.129969     21.30963    21.580703    10636.937    2067.8068    2003.1721    2360.0104    363.59234    43.456665   -152.45201   -6505.2471 
40849000    36.166696   -6922.0137   -6828.9771   -6922.0137            0     2664.145    23.152832    21.234041    21.618945    10628.483    2238.9201    3150.5487    2602.9661   -165.76139     185.6117    89.550284   -6416.0199 
40850000    36.055194   -6928.6257   -6835.8759   -6928.6257            0     2009.269    23.172305    21.269703    21.608177     10649.98    1752.6707    2431.6204     1843.516   -21.493249   -83.561912   -61.822112   -6523.7982 
40851000    35.844304   -6929.7633    -6837.556   -6929.7633            0    1812.7669    23.152557    21.345636    21.557165    10653.681      1959.51    1456.0992    2022.6914   -550.63666    296.61122    122.07251   -6555.9009 
40852000    37.274942   -6929.2048   -6833.3173   -6929.2048            0    2025.4471    23.163473    21.281605    21.611611    10653.571    2000.1456    2120.8213    1955.3744   -56.783015    230.80582    210.95816   -6518.6208 
40853000    38.119542   -6926.6398   -6828.5796   -6926.6398            0    1986.3544    23.077051    21.295486    21.689888    10659.214    2811.4812    1688.8858    1458.6963   -132.12454   -478.35601    266.43875   -6519.7935 
40854000    38.083774   -6929.7166   -6831.7484   -6929.7166            0    2216.4366    23.146156    21.260944    21.632673    10645.636    2231.1052    2267.1183    2151.0864   -414.99894    34.808154   -248.14812    -6487.634 
40855000    38.728316   -6929.8844   -6830.2581   -6929.8844            0      2168.81     23.12062    21.322815    21.584417    10641.046    2110.5331    2091.1917    2304.7052    73.089001    141.82053   -298.21505   -6493.6832 
40856000     36.92507   -6931.1614   -6836.1739   -6931.1614            0    1702.2285    23.190117     21.23162     21.66794    10668.508     1498.791    2245.4133    1362.4812    37.740024    -441.2583   -387.47859   -6571.3255 
40857000    37.840544   -6931.9321   -6834.5896   -6931.9321            0    1904.6282    23.083925     21.36187    21.606106    10654.312    2250.2509    1755.7107     1707.923    431.32401    50.058004   -268.76737   -6538.6443 
40858000    37.301804    -6929.087   -6833.1304    -6929.087            0    2013.1337    23.222879    21.252245    21.574793    10647.987    2311.6505    1731.4724    1996.2783   -41.451053   -599.86458     195.7311   -6520.5109 
40859000    38.343868   -6934.4729   -6835.8356   -6934.4729            0    1852.2721    23.122044     21.35996    21.565474    10650.884    2545.7648     1228.301    1782.7506    58.096308   -403.19547    173.44078   -6548.1181 
40860000    37.279064   -6930.4956   -6834.5974   -6930.4956            0    1854.5486    23.240863    21.189614    21.635176    10654.565    1733.3823    2212.2084    1618.0551    169.56173   -213.86407   -47.448776   -6546.4267 
40861000    37.482365   -6927.3254   -6830.9043   -6927.3254            0    2172.8866    23.151065    21.370754    21.507715    10641.065    1969.5104    1861.1362    2688.0133   -185.92116    530.83392   -114.85619   -6493.6962 
40862000    38.818849   -6930.9324   -6831.0732   -6930.9324            0    1963.0294    23.207853     21.25572    21.580764    10645.783    1823.2159    2136.1773    1929.6951    230.40722    141.89617   -147.83598   -6526.2976 
40863000    37.313611   -6925.5094   -6829.5224   -6925.5094            0    2402.9484    23.113972    21.297743    21.592462    10629.439    2652.0121    2389.6913    2167.1418    189.80297   -157.80039     143.9112   -6457.0187 
40864000    37.746437   -6925.0268   -6827.9264   -6925.0268            0    2328.1579    23.235868     21.22191    21.566157    10634.477     1786.973    2687.8891    2509.6116   -293.67257    91.651523    55.408987   -6466.8456 
40865000     37.71002   -6925.7567   -6828.7499   -6925.7567            0    2248.8848    23.170247      21.3547     21.47608    10626.229     2097.081     2352.236    2297.3373   -271.83667    315.42432   -851.99623   -6480.2343 
40866000    36.134279   -6931.1804   -6838.2272   -6931.1804            0    2347.6052    23.208524    21.218852    21.593741    10634.016    1857.1728    2967.0525    2218.5904   -46.119792    137.45765   -70.472135    -6474.146 
40867000    36.176145   -6935.4331   -6842.3722   -6935.4331            0    2210.0782    23.107972     21.29857    21.600858    10631.224    2787.7981    1921.8293    1920.6074    645.20911   -502.64971    86.210923   -6499.7095 
40868000    37.899097   -6933.9802   -6836.4871   -6933.9802            0    2048.4342    23.204882    21.292577    21.530445    10638.015     2216.128    1701.7296    2227.4449    -334.6587    -424.5943     11.56209   -6518.6837 
40869000    38.058827    -6931.071    -6833.167    -6931.071            0    2043.5596    23.123646    21.328249    21.571481    10638.772     2036.903    1936.9148    2156.8611    386.87127    548.98744    348.74048   -6516.0974 
40870000    37.794842   -6930.6146   -6833.3897   -6930.6146            0    2008.7589    23.180146    21.230571    21.631178    10645.303    2041.9243    2130.5083    1853.8441   -295.74476    321.86224    43.556151   -6521.5282 
40871000    36.743562   -6928.5031   -6833.9826   -6928.5031            0    2357.7877    23.141955    21.313176    21.548099    10628.138    2340.3804    2140.3055    2592.6773   -516.47354    445.52724    -255.8088   -6468.5243 
40872000     38.75955   -6925.4946    -6825.788   -6925.4946            0    2280.6733    23.162051    21.309628    21.557571    10640.271    2247.2732    2363.7677    2230.9791    308.68747   -518.63482   -77.761646    -6471.879 
40873000    35.189595   -6924.4295   -6833.9065   -6924.4295            0    2144.4758    23.116764    21.270546    21.660822     10650.76    2677.6258    2142.3256     1613.476    540.59989   -208.24859   -283.42188   -6500.8041 
40874000    37.245669   -6926.7786   -6830.9664   -6926.7786            0    1912.7637    23.127324    21.300858    21.629347    10655.305     1993.485    1931.6404    1813.1655    -53.34885   -11.599124   -35.429924   -6533.7292 
40875000     37.47699   -6923.5594   -6827.1521   -6923.5594            0    2134.9099    23.178004    21.280769    21.588355    10648.365    2006.0417     2255.528    2143.1598    -462.1456    195.63028    -136.1401   -6495.6103 
40876000    37.519008   -6929.5802   -6833.0648   -6929.5802            0     1854.715    23.118913    21.346783    21.599078    10659.457    2252.3353    1183.4671    2128.3426   -50.372036    187.26784     222.5223    -6544.736 
40877000    37.275069   -6929.5218    -6833.634   -6929.5218            0    1786.5784    23.208991    21.209548    21.667652    10665.949    1474.2013    2662.5741    1222.9599   -392.13762    -300.9803   -177.29213   -6555.7283 
40878000     37.36859   -6928.6337   -6832.5053   -6928.6337            0    1907.7683    23.075992    21.381899    21.580464    10647.985    2063.3205    1568.1909    2091.7936    453.75227    7.1425623   -207.39642    -6536.248 
40879000    38.196871   -6924.5417   -6826.2826   -6924.5417            0    1969.7352    23.255098    21.199049    21.609534    10653.197    1455.4223    2467.8196    1985.9637    -346.7833    132.48068   -54.746573   -6520.2528 
40880000    36.267693   -6932.7596   -6839.4631   -6932.7596            0    1991.1804    23.099707    21.331841    21.601098    10644.142    2085.2482    1914.9362    1973.3568   -194.84489     298.3734   -69.400874   -6530.3645 
40881000    35.827705    -6930.933   -6838.7685    -6930.933            0    1477.4903    23.314445    21.165343    21.610487    10663.873    521.98897    1857.9079    2052.5741    281.15327    466.34554    36.647578   -6608.9867 
40882000    39.070088   -6927.0513   -6826.5459   -6927.0513            0    1688.7814    23.124481    21.362034    21.569002    10654.784    1596.4223    1624.2183    1845.7036   -124.79085   -319.44221    646.01091   -6564.1277 
40883000    39.246108   -6930.9663   -6830.0081   -6930.9663            0    1950.2041    23.217715    21.210441    21.623833    10648.829    1900.4311    2083.6571    1866.5241   -139.11038    103.81689      360.615   -6527.1371 
40884000     35.81309   -6928.1583   -6836.0313   -6928.1583            0      2417.14     23.05873    21.348738    21.578439    10622.521    2784.3914    2477.8691    1989.1594    213.29608   -51.837336   -161.28235   -6461.5714 
40885000    36.258511   -6930.6795   -6837.4067   -6930.6795            0    2339.3598     23.21731    21.191885    21.604178    10629.657     1851.507    3092.1107    2074.4616    318.25324   -141.37647    366.54745    -6474.753 
40886000    38.508972   -6928.2388   -6829.1768   -6928.2388            0    2072.6954    23.107899    21.317541    21.595129    10637.837    2072.2657    2133.5459    2012.2746    69.107643    553.25625    227.19667   -6507.6148 
40887000    36.457671   -6928.3267   -6834.5415   -6928.3267            0    1860.0835    23.193212    21.247981    21.612861    10651.011    1841.0719    1842.6855    1896.4932   -499.90386   -14.675541    184.52893   -6545.6072 
40888000    36.475919   -6931.4552   -6837.6231   -6931.4552            0    1494.1698    23.130111    21.335395    21.605982    10662.338    1941.9278     1073.989    1466.5927    73.730346   -280.16552     259.7899   -6605.2808 
40889000    37.741898   -6931.5135   -6834.4248   -6931.5135            0    2017.0815    23.155444     21.25972    21.633274    10649.591    2065.2532    2391.2261    1594.7651   -342.36459    415.87083   -301.01167   -6521.1451 
40890000    38.994213   -6933.8157   -6833.5055   -6933.8157            0    1769.3033    23.134893    21.337427    21.578636    10652.058    1685.5901    1488.8992    2133.4207    280.42625   -262.45551    877.16838   -6558.6453 
40891000    38.272456   -6934.3445    -6835.891   -6934.3445            0    1804.1513    23.185568    21.282392      21.5766    10646.851    1635.2303    1643.9721    2133.2516    143.48413    172.11076    301.21247   -6555.7542 
40892000    37.642446   -6929.0337   -6832.2008   -6929.0337            0    1715.4782    23.133606    21.274327    21.661036     10660.52    1767.2114    2013.6471    1365.5761   -36.443835    44.938814    349.09033   -6565.4907 
40893000    37.318161    -6927.734   -6831.7353    -6927.734            0    1885.4012     23.12595    21.262675    21.672142    10656.616    2256.4275    2177.0921     1222.684    134.38457   -326.86722   -107.69351   -6538.7141 
40894000    37.192705     -6929.93    -6834.254     -6929.93            0    2003.6738    23.149391    21.309198    21.585357    10647.948    2050.2565    1745.0066    2215.7583    46.819527    20.162263    62.966304   -6523.1047 
40895000    38.744916   -6926.0111   -6826.3421   -6926.0111            0    2168.7483    23.072109    21.330358    21.636058     10647.89     2782.244     1959.331    1764.6697   -202.37026      267.726    148.57187   -6489.5603 
40896000    37.619115   -6931.3939    -6834.621   -6931.3939            0    2037.7915    23.138025    21.210769     21.69947    10649.565    2267.3547    2367.7566    1478.2631    383.40078    -461.4428    236.36745   -6518.1256 
40897000    37.032755   -6931.5897   -6836.3252   -6931.5897            0     1936.693    23.118388    21.321505    21.588638    10641.446    1944.7635    1898.3611    1966.9543   -380.20676    137.97503   -277.62387    -6535.761 
40898000    34.904789   -6926.5767   -6836.7862   -6926.5767            0    2058.9003    23.214801    21.237206    21.591638    10645.056    1786.6394    2173.7688    2216.2927   -88.161976   -140.11032    147.56396   -6517.1477 
40899000    36.798323   -6922.9258   -6828.2644   -6922.9258            0    1964.0157    23.113298    21.325645    21.619835    10656.546    2447.0637    2177.8078    1267.1756    251.24111   -275.19636     166.9736   -6523.0273 
40900000    37.340274   -6931.0186    -6834.963   -6931.0186            0    2353.0352    23.238825    21.171148    21.620445    10637.099    2088.8527    2889.5409     2080.712   -11.673907    51.722883   -30.113198   -6469.9339 
40901000    38.770156   -6928.5019   -6828.7681   -6928.5019            0    2045.6415    23.127299    21.363432    21.553857    10649.297    1954.7503    1566.2846    2615.8896     -125.054    132.16218    110.48348   -6511.0614 
40902000     37.50152   -6932.9407   -6836.4703   -6932.9407            0     2067.338    23.257153    21.210016    21.567955     10639.14    1664.3329    2747.4041    1790.2769   -204.99263   -202.89798   -302.06695   -6515.7002 
40903000    40.377159   -6931.0378     -6827.17   -6931.0378            0    1872.5352    23.081051    21.362903    21.599833    10650.408    1681.3642    2351.8839    1584.3573    762.75344    712.45914   -120.30774    -6536.318 
40904000    36.903443   -6927.6234   -6832.6915   -6927.6234            0    2083.8519    23.219318    21.231591    21.604554     10650.68    1347.8557    2402.3051    2501.3948   -367.26796    371.55213    234.38728   -6509.0084 
40905000    35.921959   -6927.9686   -6835.5615   -6927.9686            0    1770.3306    23.109303    21.415889    21.521736    10651.242    1783.5196    908.44585    2619.0262    8.0187544    460.14565    135.02922   -6560.5629 
40906000    36.354099   -6933.4447    -6839.926   -6933.4447            0    2413.9341     23.18628    21.181112    21.656026    10635.516    2445.7702    3261.8099    1534.2221     122.8745   -176.97445   -216.64031   -6465.5053 
40907000    36.854372   -6930.4767   -6835.6711   -6930.4767            0    2082.2444    23.088437    21.326065    21.616981    10643.888    2570.7257    2153.4824    1522.5252     517.7943   -194.80135   -114.40628   -6512.4439 
40908000    36.397083   -6930.0512    -6836.422   -6930.0512            0    2038.8224    23.222331    21.244788    21.572394    10642.816    1575.1207    2266.8157    2274.5307    95.737676   -154.85073   -74.967295   -6519.9671 
40909000    37.623574   -6929.0656   -6832.2813   -6929.0656            0    2077.9958    23.067733    21.393314    21.556604    10638.082    2561.6078    1743.1248    1929.2547    138.12309   -33.791652    -328.9136   -6509.8896 
40910000    36.813203     -6929.47   -6834.7703     -6929.47            0    1869.0268    23.165732    21.216761     21.69774    10664.478    2308.4009    2185.2761    1113.4034   -159.70412   -58.033686    69.954868   -6544.0797 
40911000    36.395641   -6931.2567   -6837.6312   -6931.2567            0    1901.9447    23.065346    21.359329     21.61204    10647.395    2538.1732    1295.7879    1871.8731   -554.72845    86.788657     183.9217   -6542.2947 
40912000     38.31913   -6931.0317   -6832.4581   -6931.0317            0    1529.3398    23.158724    21.296401    21.631111    10668.409    1840.0604    1309.6217    1438.3373   -268.86467   -124.82723    -146.9945   -6594.5115 
40913000    37.414871   -6929.1212   -6832.8737   -6929.1212            0    1893.5816    23.042302    21.349551    21.658991    10654.985    2802.5136    1395.7109    1482.5204    237.65426   -323.05409   -202.90306   -6538.6262 
40914000    35.991418   -6928.6072   -6836.0214   -6928.6072            0    1960.4936    23.119987    21.242507    21.708364    10661.553    2106.1266    2088.4822    1686.8719   -262.41414   -158.50514   -47.638117   -6531.1886 
40915000    37.570692   -6929.8158   -6833.1675   -6929.8158            0    1813.6452    23.080665    21.342387    21.633351    10656.513    2434.4543    1841.7771    1164.7041   -223.77807   -61.165003   -457.03949   -6551.3011 
40916000     37.84911   -6926.1158   -6828.7512   -6926.1158            0    2219.0721    23.152931    21.274784    21.615138    10647.047    1992.0314    2517.1901    2147.9946    186.07373   -261.21294   -126.55038    -6484.182 
40917000    36.257308   -6927.7398   -6834.4701   -6927.7398            0    2119.6155    23.082559    21.314815    21.639041    10646.419    2101.4357    2347.1457    1910.2652    302.13638   -267.56379   -57.717342   -6505.3635 
40918000    37.963208   -6925.2212   -6827.5631   -6925.2212            0    2078.1332    23.173563    21.265682    21.615499    10652.153    2119.5684    2295.3655    1819.4657   -350.27653   -301.67079    3.8086583   -6504.7236 
40919000    40.172849   -6927.8876   -6824.5454   -6927.8876            0    1941.1879    23.140208    21.329995    21.570997    10647.024    2141.7269    1658.8502    2022.9865    215.77512   -494.17101    90.231364   -6523.1257 
40920000    37.865385   -6931.3462   -6833.9398   -6931.3462            0    2024.3868    23.147401    21.285307    21.612403     10648.42    2212.6239    1923.7201    1936.8164   -229.04121   -20.080965    105.66265   -6519.5601 
40921000    37.103751   -6927.2083   -6831.7611   -6927.2083            0    1943.0723    23.182554    21.317183    21.559072    10654.207    2340.7318    1271.1403    2217.3447   -365.57919   -560.41693    201.45962   -6529.8452 
40922000    37.623787   -6929.3639    -6832.579   -6929.3639            0    2223.7953    23.167537    21.330141    21.531378    10640.093    2111.1234    1682.0602    2878.2024    432.79338     105.5939   -113.66969   -6487.5019 
40923000    36.931257   -6929.4981   -6834.4946   -6929.4981            0    2022.2633    23.218624    21.256269    21.565359    10643.395    2085.8379    2065.7175    1915.2345    44.030967   -171.44698    -507.4629   -6520.5929 
40924000    36.937691    -6930.729    -6835.709    -6930.729            0    2161.5129    23.116256    21.332941    21.570806    10637.378    2395.8108    1840.7587    2247.9692    132.10899     -245.037   -164.19562   -6500.3822 
40925000    37.005978   -6927.6067   -6832.4111   -6927.6067            0    2276.3089    23.218817    21.218542    21.599088    10641.211    2073.6673    2821.1006    1934.1586   -210.88221   -224.96061   -6.7860504   -6479.1481 
40926000    36.741604    -6931.253   -6836.7375    -6931.253            0    2055.1567    23.100209    21.350595    21.582278    10644.449    2481.7542    1934.7206    1748.9954    212.28695    94.632931   -76.273048   -6517.6983 
40927000    38.250205   -6924.5426   -6826.1462   -6924.5426            0      2224.93    23.259478    21.187761    21.602027     10645.83    1898.7121    2426.1034    2349.9745    132.68277   -236.54196    354.49355   -6480.7069 
40928000    37.514424   -6926.4817   -6829.9781   -6926.4817            0    2019.6817    23.057617    21.412575    21.569446    10649.331    2419.8628    1508.9156    2130.2667   -283.94682    184.50751    126.54474   -6516.3022 
40929000    35.732032   -6924.8722   -6832.9537   -6924.8722            0    1804.0034    23.225599    21.209444    21.649432    10664.555    1721.1076    2111.7331    1579.1695   -66.652187   -123.57404    -55.52349   -6552.3742 
40930000    39.003137   -6931.7782    -6831.445   -6931.7782            0    1859.7476     23.04222    21.408313    21.591617    10651.038    2452.1883     1193.233    1933.8216    85.379573   -84.645877    63.570781   -6542.5621 
40931000    37.060177   -6929.8194   -6834.4843   -6929.8194            0    1787.7082    23.242685    21.195621    21.644684    10663.105    1392.1975     2490.646    1480.2812    -425.5532   -262.91305   -227.10135    -6556.477 
40932000    39.388863   -6930.2394   -6828.9139   -6930.2394            0     2105.985     23.05714    21.380989    21.595689    10646.339    2128.6033    2140.4384    2048.9133    258.34548    365.83711   -268.48863   -6501.9262 
40933000    36.966457   -6932.2573   -6837.1634   -6932.2573            0    1574.4112    23.218497    21.254858    21.627089    10673.095       1259.7    1837.2842    1626.2494    373.84988   -399.32039    210.38281   -6592.0966 
40934000    36.652536   -6929.9441   -6835.6577   -6929.9441            0    1888.9098    23.116756    21.363646    21.573212    10654.108    1944.9835    1328.9458    2392.8002    263.17682    429.27529    337.26736   -6542.1603 
40935000     37.70085   -6926.6544   -6829.6712   -6926.6544            0    1476.0403    23.253257    21.260579    21.604766    10680.914    1206.5772    1550.0751    1671.4686   -475.19649    -422.9379    245.48086   -6599.7482 
40936000    38.848486   -6929.5706   -6829.6353   -6929.5706            0    1827.4767    23.128609    21.359584    21.577818    10659.819    2127.8247    1411.6111    1942.9942    103.12157   -137.22675   -104.74799   -6545.5311 
40937000    35.437134   -6929.1028   -6837.9429   -6929.1028            0    2176.7416    23.203693    21.220245    21.612809    10641.889    2019.1171    2374.1008     2137.007   -169.45165    176.30123   -116.08409   -6500.1104 
40938000    37.442173   -6924.1543   -6827.8366   -6924.1543            0    1804.3688     23.13757    21.391789    21.507364    10645.156    2013.3443    1275.0275    2124.7346    107.12773    304.32346    287.77226   -6547.7107 
40939000    36.448867   -6932.5951   -6838.8326   -6932.5951            0    2019.1998    23.241251    21.250811    21.531884    10634.499    1743.1794    1972.1463    2342.2738    6.5271804    188.62455    97.658147   -6525.6684 
40940000    40.389153   -6927.5257   -6823.6271   -6927.5257            0     1817.618    23.155067    21.324031    21.563425    10647.143    1924.9243    2046.1878    1481.7418    55.075528   -294.11083    181.50508   -6541.3916 
40941000    38.305591   -6926.3975   -6827.8587   -6926.3975            0    2260.3325    23.179676    21.262302    21.576588    10634.091    1987.3214    2439.6056    2354.0705    259.76973   -272.69161    289.01109   -6477.3098 
40942000    38.911222   -6931.8881   -6831.7914   -6931.8881            0    1855.5732    23.181705    21.292256    21.563325    10643.459    1998.4175    1475.5381     2092.764    52.850277    171.62493    88.041429    -6543.762 
40943000    36.736977   -6929.0055   -6834.5018   -6929.0055            0    1817.8882    23.151958    21.327119    21.569601    10650.305    2064.7469    1196.8608    2192.0567    15.867619   -190.54546    567.19369   -6552.1406 
40944000    37.254264   -6928.1884   -6832.3541   -6928.1884            0    1683.4493    23.202497    21.288031    21.581964    10660.097    1598.2623    1543.7485    1908.3371    172.37154   -185.41057   -245.93964    -6570.634 
40945000    37.095457   -6924.4602   -6829.0344   -6924.4602            0    1694.0322    23.152185    21.367803    21.540874    10656.514    1890.3543    1583.2986    1608.4438    66.730144    125.73483   -274.12471   -6565.7575 
40946000    36.500941   -6927.8878   -6833.9913   -6927.8878            0    1952.2286    23.214128    21.267751    21.570611    10649.676    1936.6196     2014.074    1905.9921   -57.164799   -131.27109    364.36309   -6530.7817 
40947000    37.215458    -6928.149   -6832.4145    -6928.149            0    1985.3999     23.10914    21.362945    21.575966    10651.608    2175.8813    1463.5635    2316.7549    147.71861    402.28914    271.95012   -6523.9969 
40948000    38.157875   -6928.1976   -6830.0388   -6928.1976            0     1740.221    23.285245    21.225628    21.556375    10654.107    1358.8733    2042.0805    1819.7091    -420.3484    -122.4123   -175.79464   -6559.6446 
40949000    39.455603   -6931.6185   -6830.1213   -6931.6185            0    1850.0513    23.142837    21.347345    21.542072    10642.604    2171.5906    1543.3176    1835.2458    351.71815    53.403578   -122.50289   -6542.9721 
40950000    36.385303   -6928.4448   -6834.8458   -6928.4448            0     1859.925    23.292807    21.173195    21.605075    10655.259     1844.553    1534.4507    2200.7713   -422.48983    336.49074    27.814383   -6545.8209 
40951000    37.389507   -6926.9158   -6830.7336   -6926.9158            0    2295.6158    23.118182    21.369947    21.510152    10626.754    2436.7696    1483.0678    2967.0101   -41.898068   -257.15434    120.96792   -6474.9583 
40952000    37.782051   -6930.0764   -6832.8844   -6930.0764            0    2044.5638    23.262202    21.225678    21.538016    10634.525     1769.566     2207.227    2156.8984    204.53515   -220.16892   -52.757025   -6515.7856 
40953000    35.326003   -6930.9459   -6840.0719   -6930.9459            0    1806.1234    23.135616    21.352349    21.563322    10652.276    1708.4699    1592.8117    2117.0886    134.00614    23.352777    484.41918   -6559.4861 
40954000    36.644569   -6928.6039    -6834.338   -6928.6039            0    2073.5632    23.211124    21.261455    21.568606    10644.156      1826.79    2155.0225    2238.8772    183.96926    -158.3356    183.43648   -6512.4502 
40955000    37.041072   -6930.6261   -6835.3402   -6930.6261            0    2032.2923     23.16738    21.337551     21.52024    10638.211     2407.047    1623.1196    2066.7104    252.09974    203.63992    5.5789376   -6520.0354 
40956000    35.991963   -6930.2159   -6837.6287   -6930.2159            0     1931.258    23.199375    21.271794    21.580955    10650.036    1855.9686    2184.0274    1753.7779   -87.929776    -98.23414   -252.03233    -6537.666 
40957000    36.769752   -6931.5558   -6836.9679   -6931.5558            0    1966.7278    23.196341    21.263777    21.591868    10650.012    2036.4956    1793.2278    2070.4602    297.23725   -89.974106    19.700313   -6531.4967 
40958000    37.633144   -6929.2587   -6832.4497   -6929.2587            0    1847.5396     23.14884    21.354316    21.551413    10653.459    1679.1291    2063.1968    1800.2929    44.345177   -162.40565   -383.04617   -6545.3979 
40959000    38.397917   -6929.2532   -6830.4769   -6929.2532            0    1978.5877    23.206729    21.277769    21.567367    10649.695    1449.9934    2393.6774    2092.0923    22.711497   -319.56837   -221.93254   -6523.1728 
40960000    37.285884   -6929.4399   -6833.5242   -6929.4399            0    2281.7311    23.071508    21.344027    21.614043    10643.595    3002.2657    2031.1336    1811.7941    58.657312   -208.00734   -354.58437   -6479.3404 
40961000    38.455149   -6929.1793   -6830.2557   -6929.1793            0    2230.5464    23.186426    21.242295    21.627292    10652.153     2369.029    2493.5947    1829.0156    143.24106   -610.73543     55.31402   -6483.7388 
40962000     36.88338   -6929.8579   -6834.9777   -6929.8579            0    2294.9141    23.067395    21.372906    21.556792    10627.871      2846.54    1800.1427    2238.0597   -249.93924   -111.87023   -118.78956   -6479.2738 
40963000    37.554871    -6930.583   -6833.9754    -6930.583            0    2182.3924    23.232248    21.193688    21.618021    10644.217    1769.7542    2404.8242    2372.5989   -152.73023   -307.58593     152.3268   -6495.1918 
40964000    37.755257   -6930.2118   -6833.0887   -6930.2118            0    1686.0604     23.05028     21.38272    21.630063    10660.976    2113.8494    1405.4738     1538.858    430.09024   -48.346634   -187.37156    -6570.941 
40965000    35.646488   -6930.0157   -6838.3173   -6930.0157            0    1864.9214    23.205443    21.239357    21.617179    10654.431     1883.493    2093.1986    1618.0725   -375.26639    68.201517   -867.68176   -6548.5384 
40966000    38.706182   -6933.4633    -6833.894   -6933.4633            0    1816.4314    23.084991    21.423607    21.537021    10651.431    2274.0275    681.00178    2494.2649    32.942049    409.08707    242.26115   -6551.7292 
40967000    38.057334   -6931.6687   -6833.7685   -6931.6687            0    1696.3268    23.213369    21.248033    21.623651    10665.616    1690.4895    1812.3238    1586.1669   -106.80747   -194.63851    194.76456   -6569.9099 
40968000     38.11297   -6927.4906   -6829.4473   -6927.4906            0    1608.8569    23.082157    21.360678    21.634227    10666.767    1858.4483    1593.0733    1375.0491    166.78137   -15.139298     231.7637   -6579.1674 
40969000    37.367932   -6930.4874   -6834.3607   -6930.4874            0    1696.8099    23.214197    21.267844    21.590119    10659.385    1436.6597    2068.5126    1585.2573    -309.7704   -207.07651   -329.02073   -6570.5811 
40970000    36.230547    -6931.807   -6838.6061    -6931.807            0    1785.7273    23.084529    21.417353    21.544077    10651.596    1874.9726    1482.5015    1999.7079   -83.371986    690.15398   -102.14613   -6561.2066 
40971000    37.034565    -6929.363   -6834.0939    -6929.363            0    1768.1021    23.219434     21.21626    21.637445    10659.245     1584.113    2070.0031    1650.1902   -49.818074   -198.10577   -201.50211   -6559.2351 
40972000    37.126217   -6930.9226   -6835.4177   -6930.9226            0    1937.3249    23.099812    21.349849    21.589251    10647.333    2145.2772    1973.9668    1692.7305   -146.23338   -225.87627    -87.93497   -6534.5891 
40973000    37.728072   -6932.5722    -6835.519   -6932.5722            0    1872.4571    23.270907    21.229778    21.564511    10653.648    1361.3659    2835.9077    1420.0977    77.913555   -300.89292    -524.9118   -6544.5906 
40974000    39.630382   -6930.3934   -6828.4467   -6930.3934            0    1847.3688    23.168201    21.327665    21.570831    10658.658    1704.2045    1749.3852    2088.5166    205.74535   -25.716581    29.218676   -6541.2814 
40975000    36.673845   -6929.5479   -6835.2067   -6929.5479            0    1889.2698    23.285534    21.198447    21.591909    10658.137    1177.1429    2682.7205    1807.9459   -147.05155    345.61242   -485.91102   -6541.5424 
40976000    37.606204   -6930.4298   -6833.6901   -6930.4298            0    2160.0907    23.144966    21.338835    21.538404     10637.53    2370.9321    1494.7784    2614.5616    256.49662    27.854024    176.40034   -6498.5791 
40977000    39.105225   -6925.8726   -6825.2768   -6925.8726            0    1392.8496    23.240344    21.272509    21.592346    10674.833    1665.6792    1039.2734    1473.5961    168.34402   -286.28187    51.626973   -6608.4359 
40978000    38.640749   -6925.6213   -6826.2203   -6925.6213            0    1962.5133    23.145653    21.357897     21.53853     10647.41     1634.788    1959.1173    2293.6347   -220.81962    418.88722   -75.129072   -6521.4782 
40979000    37.558146   -6927.4091   -6830.7931   -6927.4091            0    2132.3304    23.189193     21.27416    21.582582    10647.348    1683.4477    2768.6138    1944.9297    167.20283   -171.04395   -360.60325   -6499.6834 
40980000    38.513043   -6927.5353   -6828.4629   -6927.5353            0     1814.477    23.151678    21.361805    21.542854    10654.269     1951.196    1784.7523    1707.4828    46.804859   -375.04337   -469.04079   -6546.5266 
40981000    37.874974   -6924.9652   -6827.5341   -6924.9652            0     2087.314    23.209292     21.25734    21.574742    10644.283     1586.084    2466.1372    2209.7207   -59.015889    222.44974   -378.43905    -6503.508 
40982000    37.230927   -6926.6906   -6830.9163   -6926.6906            0    2146.2207    23.168902    21.335013    21.515831    10635.465    1670.4019    2693.5518    2074.7083    24.247078    36.779868   -499.33835   -6498.0217 
40983000     37.48237    -6931.607   -6835.1859    -6931.607            0    2073.0304     23.18316    21.261983    21.597812    10645.993    2027.6646    2083.3644    2108.0621    635.20966   -308.90764    128.48318   -6513.3253 
40984000    37.702942   -6929.0761   -6832.0876   -6929.0761            0    1945.1757    23.144488    21.334074    21.556149    10643.698    2001.9425    1674.6394    2158.9452   -204.59203     -316.323    186.87556    -6530.143 
40985000    36.862244   -6928.2043   -6833.3784   -6928.2043            0    1667.5462     23.23708    21.310638     21.53007    10661.626    1641.4368    1495.3651    1865.8368   -177.92077   -633.96726   -401.30071   -6574.0936 
40986000    36.758665   -6929.2383   -6834.6789   -6929.2383            0    2298.8069    23.149361    21.330561    21.547281    10639.807    2634.0576    1813.1662    2449.1971    185.85993   -315.70877    107.66038   -6477.9715 
40987000    37.603957   -6932.7117   -6835.9778   -6932.7117            0    2032.8503    23.210336    21.246653    21.597374    10650.571     2070.981    2290.1347    1737.4353    -234.6618     127.4337   -32.584094   -6520.2199 
40988000    38.437502   -6927.8225   -6828.9443   -6927.8225            0    1675.9335    23.145456    21.376568    21.566319    10670.376    1490.6367    1917.5511    1619.6128    704.30781    23.694167   -295.54089   -6568.1414 
40989000     35.94761   -6926.3604   -6833.8873   -6926.3604            0    2075.3853    23.252937    21.227659    21.588154     10656.03    1343.4162    2472.6698      2410.07    154.12275   -208.49782   -281.70283   -6511.3574 
40990000    38.265902   -6929.2077    -6830.771   -6929.2077            0    2043.6185    23.110365    21.354904    21.573642    10647.016    2332.3615    1768.4444    2030.0496    189.56563   -550.62188    15.885472   -6513.4465 
40991000    37.046372   -6930.2328   -6834.9333   -6930.2328            0    1936.2558    23.209011     21.24788    21.610935    10657.266    2403.8033    1697.7684    1707.1956   -303.64315   -476.91134   -134.46365   -6533.9902 
40992000    38.044463   -6933.1693   -6835.3022   -6933.1693            0    1801.2952    23.087194    21.399331    21.561394    10652.417    2673.8055    771.31144    1958.7688    233.99056    80.239765    267.79033   -6555.4627 
40993000    38.603302    -6930.628   -6831.3233    -6930.628            0    2075.2215    23.202711    21.237659     21.60919    10648.388    2419.0258    1994.2215    1812.4173    -243.5639   -11.438626    -362.7118   -6509.0501 
40994000    37.712958   -6930.0916   -6833.0773   -6930.0916            0    2115.1828    23.076515    21.341904    21.599189    10637.531    2500.4572    2016.6866    1828.4045    308.64358   -150.19317   -10.399767   -6504.9332 
40995000    39.308464   -6926.8574   -6825.7387   -6926.8574            0    2402.1813    23.203856     21.21007    21.616726    10638.789    2081.8223    2696.0443    2428.6772   -258.92291    238.52149   -121.93322   -6453.0263 
40996000    37.526209   -6932.5503   -6836.0164   -6932.5503            0    1679.2159    23.108349    21.354016    21.601541    10659.411    1846.1509    1783.7031    1407.7937   -54.741783   -127.15277     64.61247   -6574.9712 
40997000    37.161966   -6928.2701   -6832.6732   -6928.2701            0    1896.9843    23.208243    21.204957    21.646408    10652.842    1774.3861    2510.3534    1406.2134    73.247033     179.5406   -241.98232   -6537.9562 
40998000    37.371656    -6926.772   -6830.6356    -6926.772            0    1873.7627    23.130124    21.349601    21.580772    10656.993    1795.8944    1456.5278    2368.8661    444.99678    132.92679    291.08127    -6539.413 
40999000    36.447905   -6928.4161   -6834.6561   -6928.4161            0    1848.2832    23.169782    21.263881    21.635444    10659.339    1803.8712    1973.8798    1767.0986   -475.19227    144.44247   -346.48692   -6547.3302 
41000000    40.275144   -6926.7575   -6823.1522   -6926.7575            0    2503.1961     23.09763    21.301889    21.612323    10633.763    2515.8029    2438.8863     2554.899    66.216277    66.855498   -9.7326973   -6434.9502 
Loop time of 472.708 on 64 procs for 250000 steps with 1296 atoms

Performance: 91.388 ns/day, 0.263 hours/ns, 528.868 timesteps/s
392.7% CPU use with 16 MPI tasks x 4 OpenMP threads

MPI task timing breakdown:
Section |  min time  |  avg time  |  max time  |%varavg| %total
---------------------------------------------------------------
Pair    | 38.057     | 48.871     | 57.641     |  77.9 | 10.34
Bond    | 1.5435     | 1.728      | 2.1816     |  14.3 |  0.37
Kspace  | 233.04     | 242.73     | 254.25     |  37.8 | 51.35
Neigh   | 0.13334    | 0.13997    | 0.14401    |   0.8 |  0.03
Comm    | 48.73      | 51.664     | 54.728     |  20.9 | 10.93
Output  | 0.39458    | 0.39494    | 0.39619    |   0.1 |  0.08
Modify  | 115        | 118.57     | 120.83     |  13.1 | 25.08
Other   |            | 8.613      |            |       |  1.82

Nlocal:        81.0000 ave          99 max          64 min
Histogram: 2 0 2 1 4 2 1 2 0 2
Nghost:        3710.88 ave        3751 max        3666 min
Histogram: 2 0 1 1 2 4 3 0 2 1
Neighs:        26267.6 ave       32015 max       20729 min
Histogram: 2 0 2 1 4 2 1 2 0 2

Total # of neighbors = 420281
Ave neighs/atom = 324.29090
Ave special neighs/atom = 2.0000000
Neighbor list builds = 269
Dangerous builds = 0

unfix		3
unfix		2
unfix		1

write_data	data.final.${pid}
write_data	data.final.0
System init for write_data ...
PPPM initialization ...
  extracting TIP4P info from pair style
  using 12-bit tables for long-range coulomb (../kspace.cpp:340)
  G vector (1/distance) = 0.36759057
  grid = 30 40 32
  stencil order = 5
  estimated absolute RMS force accuracy = 0.0045010255
  estimated relative force accuracy = 1.3554705e-05
  using double precision FFTW3
  3d grid and FFT values/proc = 11832 2400
Last active /omp style is kspace_style pppm/tip4p/omp
WARNING: Not all mixed pair coeffs generated from mixing. Use write_data with 'pair ij' option to store all pair coeffs. (../write_data.cpp:312)

write_restart   restart.lmp.${pid}
write_restart   restart.lmp.0
System init for write_restart ...
PPPM initialization ...
  extracting TIP4P info from pair style
  using 12-bit tables for long-range coulomb (../kspace.cpp:340)
  G vector (1/distance) = 0.36759057
  grid = 30 40 32
  stencil order = 5
  estimated absolute RMS force accuracy = 0.0045010255
  estimated relative force accuracy = 1.3554705e-05
  using double precision FFTW3
  3d grid and FFT values/proc = 11832 2400
Last active /omp style is kspace_style pppm/tip4p/omp
Total wall time: 0:07:52
