LAMMPS (30 Jul 2021)
Processor partition = 0
  using 4 OpenMP thread(s) per MPI task
using multi-threaded neighbor list subroutines
variable        pid world 0 1
variable        phase world IceVI IceV

shell cd ${phase}
shell cd IceVI
include Restart.lmp
echo both
log log.lammps
#include		in.partitions
include		in.temp
variable        temperature equal 75.77
variable	tempDamp equal 100.0
include		in.pressure
variable        pressure equal 8232.9
variable        pressureDamp equal 1000.0 # This is 1 ps
include		in.seed
variable        seed equal 745823

units		real
atom_style	full
read_restart	restart.lmp.${pid}
read_restart	restart.lmp.0
Reading restart file ...
  restart file = 30 Jul 2021, LAMMPS = 30 Jul 2021
  restoring atom style full from restart
  orthogonal box = (0.012458373 0.033771232 0.041625320) to (24.717543 24.696230 22.768375)
  4 by 2 by 2 MPI processor grid
  restoring pair style lj/cut/tip4p/long/omp from restart
  restoring bond style harmonic/omp from restart
  restoring angle style harmonic/omp from restart
  1920 atoms
  1280 bonds
  640 angles
Finding 1-2 1-3 1-4 neighbors ...
  special bond factors lj:    0        0        0       
  special bond factors coul:  0        0        0       
     2 = max # of 1-2 neighbors
     1 = max # of 1-3 neighbors
     1 = max # of 1-4 neighbors
     2 = max # of special neighbors
  special bonds CPU = 0.001 seconds
  read_restart CPU = 0.005 seconds
include 	in.setup
variable	out_freq equal 1000
variable	out_freq2 equal 10000
variable	out_freq3 equal 1000

timestep	2.0

neigh_modify    delay 7 every 1

include		in.tip4p
# This is TIP4P/Ice

# create groups ###
group ox type 2
640 atoms in group ox
group hy type 1
1280 atoms in group hy

# set charges - beside manually ###
set group ox charge -1.1794
Setting atom values ...
  640 settings made for charge
set group hy charge 0.5897
Setting atom values ...
  1280 settings made for charge

# ### TIP3P Potential Parameters ###
pair_style lj/cut/tip4p/long/omp 2 1 1 1 0.1577 8.5
pair_coeff 1 1*2 0.000 0.000
pair_coeff 2 2 0.21084 3.1668
bond_style  harmonic
bond_coeff  1 450 0.9572
angle_style harmonic
angle_coeff 1 55 104.52
kspace_style pppm/tip4p/omp 1.0e-5
pair_modify tail yes

thermo          ${out_freq}
thermo          1000
thermo_style    custom step temp pe etotal epair emol press lx ly lz vol pxx pyy pzz pxy pxz pyz enthalpy

restart 	${out_freq3} restart.lmp.${pid} restart2.lmp.${pid}
restart 	1000 restart.lmp.${pid} restart2.lmp.${pid}
restart 	1000 restart.lmp.0 restart2.lmp.${pid}
restart 	1000 restart.lmp.0 restart2.lmp.0


include         in.dump
dump            myDump all atom ${out_freq2} dump.water.${pid}
dump            myDump all atom 10000 dump.water.${pid}
dump            myDump all atom 10000 dump.water.0
dump            myDump2 all dcd ${out_freq2} dump.dcd
dump            myDump2 all dcd 10000 dump.dcd
dump_modify     myDump append yes
dump_modify     myDump2 append yes


variable natoms 	equal  "count(all)"                        # NUMBER ATOMS
variable H      	equal  "enthalpy/v_natoms"                 # ENTHALPY-per-atom
variable Vol      	equal  "vol/v_natoms"                 # volume-per-atom
fix AVG all 		ave/time ${out_freq} 1 ${out_freq} v_Vol v_H file vol_enthalpy.dat
fix AVG all 		ave/time 1000 1 ${out_freq} v_Vol v_H file vol_enthalpy.dat
fix AVG all 		ave/time 1000 1 1000 v_Vol v_H file vol_enthalpy.dat




fix 		1 all shake 1e-6 200 0 b 1 a 1
Finding SHAKE clusters ...
       0 = # of size 2 clusters
       0 = # of size 3 clusters
       0 = # of size 4 clusters
     640 = # of frozen angles
  find clusters CPU = 0.000 seconds
fix             2 all nph aniso ${pressure} ${pressure} ${pressureDamp}
fix             2 all nph aniso 8232.9 ${pressure} ${pressureDamp}
fix             2 all nph aniso 8232.9 8232.9 ${pressureDamp}
fix             2 all nph aniso 8232.9 8232.9 1000
fix             3 all temp/csvr ${temperature} ${temperature} ${tempDamp} ${seed}
fix             3 all temp/csvr 75.77 ${temperature} ${tempDamp} ${seed}
fix             3 all temp/csvr 75.77 75.77 ${tempDamp} ${seed}
fix             3 all temp/csvr 75.77 75.77 100 ${seed}
fix             3 all temp/csvr 75.77 75.77 100 745823


run             250000
PPPM initialization ...
  extracting TIP4P info from pair style
  using 12-bit tables for long-range coulomb (../kspace.cpp:340)
  G vector (1/distance) = 0.37530298
  grid = 30 30 30
  stencil order = 5
  estimated absolute RMS force accuracy = 0.0031732243
  estimated relative force accuracy = 9.5560707e-06
  using double precision FFTW3
  3d grid and FFT values/proc = 7920 1800
Last active /omp style is kspace_style pppm/tip4p/omp
Neighbor list info ...
  update every 1 steps, delay 7 steps, check yes
  max neighbors/atom: 2000, page size: 100000
  master list distance cutoff = 10.8154
  ghost atom cutoff = 10.8154
  binsize = 5.4077, bins = 5 5 5
  1 neighbor lists, perpetual/occasional/extra = 1 0 0
  (1) pair lj/cut/tip4p/long/omp, perpetual
      attributes: half, newton on, omp
      pair build: half/bin/newton/omp
      stencil: half/bin/3d
      bin: standard
Setting up Verlet run ...
  Unit style    : real
  Current step  : 37750000
  Time step     : 2
Per MPI rank memory allocation (min/avg/max) = 12.57 | 12.57 | 12.57 Mbytes
Step Temp PotEng TotEng E_pair E_mol Press Lx Ly Lz Volume Pxx Pyy Pzz Pxy Pxz Pyz Enthalpy 
37750000    76.126771   -9867.4722   -9577.2422   -9867.4722            0    8238.9251    24.705084    24.662459    22.726749    13847.138    7354.2586    9170.9749    8191.5417   -427.88994    125.80722    78.734979   -7913.4217 
37751000    74.808143   -9874.1568   -9588.9541   -9874.1568            0    8042.5698     24.72587    24.643153    22.742382    13857.466    7040.3318    9160.8187    7926.5589   -252.46623   -288.67752    1062.6333   -7963.5754 
37752000    75.931676   -9870.6592    -9581.173   -9870.6592            0    8303.2217    24.657681    24.725767    22.708405    13844.862    8767.5695     7452.725    8689.3708    74.652566   -31.830565   -300.27766   -7904.6437 
37753000    76.577829   -9875.4265   -9583.4769   -9875.4265            0    8107.6441    24.619094    24.753685    22.722234    13847.232    8609.6834    7351.0709     8362.178   -200.76195   -317.15044    85.921025   -7946.1571 
37754000    75.752957    -9881.518   -9592.7132    -9881.518            0     8058.917    24.670678    24.645337    22.767701    13843.153    8105.7963      8329.59    7741.3647   -628.46577   -64.737372    -116.1735   -7965.7131 
37755000    75.643207   -9870.0053   -9581.6189   -9870.0053            0    7519.9421    24.736547     24.64339    22.774934    13883.427    7505.9713    7642.7711    7411.0839   -432.05898   -179.53534   -861.38402   -8059.0146 
37756000     77.11998   -9864.6671   -9570.6505   -9864.6671            0    8364.5264    24.712929    24.700857    22.681647     13845.57    7911.6965    7801.1836    9380.6991   -420.10677   -163.68616   -184.21317   -7881.6566 
37757000    75.143525   -9873.4981   -9587.0167   -9873.4981            0     8755.253    24.581331    24.730383     22.74591    13827.369    9045.2859    8426.2264    8794.2467   -847.26282   -105.02037    -768.2332     -7821.45 
37758000    75.489719    -9875.639   -9587.8378    -9875.639            0    8344.5534    24.670727    24.635445     22.78003    13845.117    7500.0906    8879.3185    8654.2511   -296.27593    -366.5347    231.49247    -7902.932 
37759000    77.309949   -9868.6271   -9573.8863   -9868.6271            0    7633.7307    24.690909    24.722736    22.726563    13872.904     7624.344    7155.9007    8120.9473   -277.30433   -651.44796    356.41929   -8029.4141 
37760000    76.248548   -9867.0898   -9576.3956   -9867.0898            0     8048.175    24.742529    24.684532    22.668509    13844.967    7314.6426    8507.2933    8322.5892    -775.8583    77.894707    220.50192   -7951.3511 
37761000    76.286695   -9875.6752   -9584.8356   -9875.6752            0    8394.6086      24.6961    24.655975    22.723551    13836.516    7881.8205    8915.3202    8386.6852   -415.15676   -390.50893    464.25784   -7890.8758 
37762000    77.290486   -9865.0758   -9570.4093   -9865.0758            0    8364.7303    24.662444    24.629258    22.815719    13858.672    8477.9811    8877.5619    7738.6479    211.89698    321.41541   -276.40768   -7879.7759 
37763000    76.427337   -9865.2267   -9573.8508   -9865.2267            0    8211.6923    24.668184    24.709886    22.723975    13851.354    8008.3206    8259.5852    8367.1711   -136.02191    152.38172    599.57894    -7915.025 
37764000    73.009166   -9874.5885   -9596.2442   -9874.5885            0    8167.5435    24.640127    24.782238    22.668743    13842.384    8796.3257    7286.4055    8419.8993   -156.47264   -22.269631   -155.10729   -7947.4052 
37765000    75.845722   -9869.6052   -9580.4467   -9869.6052            0    8619.2728    24.611779    24.721196    22.723534    13825.739    8638.7936    7905.7235    9313.3013   -224.49345    198.42661    -287.7122   -7842.5063 
37766000    75.860775   -9864.5403   -9575.3244   -9864.5403            0    9083.6926    24.699839    24.622812    22.703463     13807.78    7862.8932    9993.2605    9394.9241     270.9442   -415.62776   -572.37868   -7746.1203 
37767000    75.997042   -9868.3233    -9578.588   -9868.3233            0    8513.3149    24.671259    24.705669    22.709563    13841.932     8948.415    7797.8873    8793.6423    284.84174    40.204682     84.17763   -7860.0018 
37768000    77.173316   -9887.6117   -9593.3918   -9887.6117            0    7994.4052    24.670311    24.654325    22.779043    13854.894    7630.0469    8540.3586      7812.81    239.94654    46.852211   -119.63681    -7978.047 
37769000    75.608123   -9868.7724   -9580.5197   -9868.7724            0    9099.4646    24.644164     24.68041    22.709662    13812.654    8966.4779    8832.7227    9499.1933    136.18371    12.730878    2.4178728   -7747.4928 
37770000    75.337293   -9872.8241    -9585.604   -9872.8241            0    9124.3927    24.644791    24.661089    22.716025    13806.059    9225.6401    8903.9438    9243.5942   -165.10678   -642.83404   -396.41478   -7748.4329 
37771000    75.942674   -9874.4575   -9584.9294   -9874.4575            0    8675.3321     24.68117    24.620026    22.756331    13827.908    8668.0191    9321.1172    8036.8601   -564.97764    370.10464    348.33515   -7835.4111 
37772000    75.433223   -9862.3757   -9574.7899   -9862.3757            0    8091.0934    24.668882    24.671457    22.763297    13854.135    7884.2663    8388.2925    8000.7215    -257.4675     -497.439    508.82056   -7939.9977 
37773000    73.072362   -9878.3977   -9599.8125   -9878.3977            0    7724.4666    24.746229    24.711503    22.674133    13865.607    7112.3081    7792.3914    8268.7003    259.46415    -132.4896    5.6105615   -8037.8045 
37774000    77.161551   -9856.3612   -9562.1862   -9856.3612            0    8985.3551    24.640957    24.723306    22.701157     13829.68    8375.9407    8921.8271    9658.2974    92.798778   -13.933899    436.02338   -7749.9147 
37775000    77.022136   -9877.3716   -9583.7281   -9877.3716            0     7684.948    24.666834    24.659091    22.812353    13875.881    7855.8845    8013.2346    7185.7249   -64.392421    220.43839   -724.55819   -8028.5599 
37776000     77.89022    -9873.104    -9576.151    -9873.104            0    7724.4884    24.674943    24.730964    22.731297    13871.436    7877.0491    7800.3847    7496.0315    -45.60852   -387.03788    51.795615   -8013.4818 
37777000    77.219357   -9876.9352   -9582.5398   -9876.9352            0    8132.2968    24.730754    24.624243    22.741317    13848.919    6974.8435    9290.7379    8131.3091   -44.417897   -1136.4061    466.28483   -7940.0413 
37778000    76.725195   -9877.0897   -9584.5782   -9877.0897            0    8694.2323    24.661063    24.723662    22.666618    13820.104    8627.9203    9074.0513    8380.7253   -568.65777    674.89694    200.69824    -7832.238 
37779000    74.942888    -9879.432   -9593.7155    -9879.432            0    7531.4296    24.662218    24.699783    22.766314    13868.133    7653.4957     7187.312     7753.481   -223.25704     80.50082    191.65679   -8070.4651 
37780000    77.519934   -9876.2057   -9580.6643   -9876.2057            0    7305.0378    24.669232     24.71228    22.783812    13889.763    7502.3721    6836.6023     7576.139    82.442942    224.18938    20.608287   -8100.8979 
37781000    77.835395   -9864.4174   -9567.6733   -9864.4174            0    8641.0461    24.711103    24.718771     22.63303    13824.891    7586.8422    8827.1046    9509.1913   -390.59922   -795.41667    74.409492   -7825.4496 
37782000    79.121476   -9872.3509   -9570.7038   -9872.3509            0    8714.9989     24.65488    24.673587    22.728446    13826.266    9223.6097    8441.4764    8479.9107   -257.71733   -431.94589    458.38213   -7813.3947 
37783000    74.957552   -9864.0691   -9578.2967   -9864.0691            0    8082.1934    24.664282    24.698117    22.752633    13860.024    7456.9528    8460.4004    8329.2268   -88.622243     243.9651   -339.04928   -7944.6088 
37784000    73.451037   -9873.5384   -9593.5096   -9873.5384            0    8311.9026    24.717256    24.661871    22.689176    13830.727    7678.5562    8496.5555    8760.5963    132.87682    165.35927    328.86787   -7916.9409 
37785000    73.776475   -9875.3148   -9594.0452   -9875.3148            0    8631.5361    24.623655    24.651208    22.775341    13824.697    8228.5251    8621.1169    9044.9664   -160.56163   -414.06203   -374.30328   -7853.7633 
37786000     73.49683   -9864.4054    -9584.202   -9864.4054            0    8442.6404    24.686657    24.676112    22.717703    13838.959    8465.8049    8058.5929    8803.5233   -383.74558   -564.15896    698.00805    -7880.249 
37787000    77.325152   -9878.0758    -9583.277   -9878.0758            0    8144.8015    24.656657     24.68183    22.749825    13844.893    8513.4278    8108.5565    7812.4201    33.588459   -124.73242    219.04381   -7938.7311 
37788000    77.012006   -9868.5321   -9574.9272   -9868.5321            0    8375.4595    24.670816    24.705115    22.705714    13839.027    8532.7268     8307.388    8286.2638    144.55663   -212.72708   -86.653427   -7884.5248 
37789000    75.660325   -9877.9923   -9589.5406   -9877.9923            0    8612.4951    24.643025    24.659974    22.758475    13830.242    8581.3432    9111.9428    8144.1993    729.47155    223.21302   -235.55764   -7852.4013 
37790000    77.069351   -9883.7342   -9589.9107   -9883.7342            0    7967.9443    24.607072    24.697502    22.794517    13852.985    8879.8083    7921.8543    7102.1703    418.22121   -349.26671     498.4147   -7980.1343 
37791000    74.978009   -9880.7365   -9594.8861   -9880.7365            0    8796.4002    24.621433    24.744688    22.680241     13817.93    8668.5158    8594.5904    9126.0943   -434.24772    -483.2073    411.72336   -7822.2326 
37792000    76.146023   -9873.0136   -9582.7103   -9873.0136            0    8848.9319    24.674211    24.654131    22.714741    13817.859     8323.133    9288.2059    8935.4568   -315.04207    255.85278     208.3074   -7799.4796 
37793000    74.756461   -9869.3349   -9584.3291   -9869.3349            0    7401.8877    24.676379    24.758136    22.735169     13889.85    7361.9632    6849.0016    7994.6984   -482.66758   -8.7040784   -209.23294   -8084.9346 
37794000    75.006216   -9869.3003   -9583.3424   -9869.3003            0    7955.3696     24.62051    24.755018    22.736308    13857.352    8334.8428    7936.6271    7594.6387   -480.11345   -997.88932     369.5121   -7975.5999 
37795000    73.375357   -9877.3142   -9597.5738   -9877.3142            0    8653.7532    24.669963    24.669778    22.707409    13819.786    8423.8637    8935.2416    8602.1542   -480.55736   -285.82931    282.36219   -7853.4323 
37796000    78.590211   -9864.8632   -9565.2415   -9864.8632            0     9009.648    24.678229    24.648804    22.725933    13823.931    8496.0316    9328.2322    9204.6803    -503.3933   -56.128783   -133.81549   -7748.8257 
37797000    74.327656   -9869.5621   -9586.1911   -9869.5621            0    8351.6092     24.65186    24.669849    22.750026    13835.603    8434.9421    8613.0959    8006.7895    114.25168   -420.10066   -99.747275   -7901.0195 
37798000    76.248961   -9876.7833   -9586.0875   -9876.7833            0    8176.9944    24.617578    24.719749    22.760393    13850.618    8457.0318    7826.5318    8247.4194    200.18293    56.519565    371.95027   -7934.3587 
37799000    76.857126   -9869.4082   -9576.3938   -9869.4082            0    7998.2596    24.632682    24.733794    22.729715    13848.299    8526.5422    7431.9044    8036.3322   -230.22963    446.17942    395.87226   -7961.0394 
37800000    76.515571   -9859.6728   -9567.9606   -9859.6728            0     9063.808     24.61817    24.708494    22.706778    13812.032    9914.3665    8742.3572    8534.7002   -142.33368   -230.44575    693.03846   -7742.1986 
37801000    75.620455   -9871.7692   -9583.4696   -9871.7692            0    8092.0342    24.653939    24.663752    22.779137    13851.051     8093.198    8540.7459    7642.1588    549.49377   -21.781853   -25.248327   -7948.8514 
37802000    76.351301   -9874.6381   -9583.5521   -9874.6381            0    8163.6899    24.679536    24.733549    22.693145     13852.18    8250.8198    7335.2833    8904.9665   -384.92278    109.77545   -141.38941   -7934.3248 
37803000    76.503108   -9873.7282   -9582.0634   -9873.7282            0    8763.1139    24.725355    24.725245    22.615721    13825.905    8531.0096    8140.0108    9618.3214    34.285411    -125.0651   -10.033418   -7815.0985 
37804000    74.637196   -9863.9616   -9579.4106   -9863.9616            0     8359.918    24.658778    24.674339     22.76141     13848.93    7855.1763    9081.3065    8143.2713   -305.74052   -643.65603     929.9519   -7890.9375 
37805000    76.649329   -9866.8747   -9574.6525   -9866.8747            0    8435.7399    24.632227     24.69073    22.772251    13849.802    8775.0962     8195.683    8336.4404    143.98086   -520.97054    123.40792   -7870.7582 
37806000    76.927189   -9865.3105    -9572.029   -9865.3105            0    8257.0918    24.701694    24.676644    22.716909    13847.203    7221.2439    8943.0834    8606.9481    324.23979   -378.87245   -281.80698    -7904.532 
37807000    74.669113   -9867.0843   -9582.4116   -9867.0843            0    8143.8769    24.643211    24.718664    22.751829    13859.214    8213.9504    8290.9096    7926.7706   -442.71887    -94.48121    446.57083   -7936.3515 
37808000    73.495272   -9863.9264   -9583.7289   -9863.9264            0    8650.9913    24.659513    24.720032    22.692022    13832.692    8601.5019    8819.8346    8531.6375    210.97547   -359.81386   -288.20146   -7838.5157 
37809000    77.166019   -9873.8034   -9579.6113   -9873.8034            0    9069.1003    24.672075    24.677684    22.668853    13801.923    8669.2652    9100.8455    9437.1903   -336.09468   -169.68022    280.50852   -7754.1202 
37810000    72.781654   -9873.8027   -9596.3258   -9873.8027            0    8127.9083    24.654884    24.680182    22.729237    13830.446     8295.405    8782.0356    7306.2845   -222.39729    129.93563   -152.50482   -7956.9034 
37811000    75.062539   -9875.3256    -9589.153   -9875.3256            0    7617.8726     24.66098    24.673396    22.786319    13864.795    7745.2701    7905.7848    7202.5629   -338.98753    -336.1071     20.98174   -8048.7901 
37812000    74.234318   -9861.0763   -9578.0612   -9861.0763            0    9288.2211      24.6715    24.639851    22.706498    13803.327    9155.3999    9588.9647    9120.2987   -907.50111   -85.993939   -359.06637   -7708.2739 
37813000    77.069837   -9864.4959   -9570.6705   -9864.4959            0    7966.0368     24.66534    24.712581    22.740796     13861.52    8151.8956    8533.6002    7212.6145   -540.02398   -219.17531   -84.337253   -7960.2879 
37814000    76.195914   -9873.4595    -9582.966   -9873.4595            0    7933.3696    24.602886     24.69818    22.791412    13849.122    8793.8005    7863.3387    7142.9697   -163.48964   -65.903391    -42.34238   -7980.6217 
37815000    75.654966   -9886.5477   -9598.1164   -9886.5477            0    7575.4942    24.661971    24.766804    22.706745    13869.238    7524.6629    6991.8803    8209.9395   -93.597541   -28.467196    216.77492   -8065.8317 
37816000    77.885054   -9857.6745   -9560.7412   -9857.6745            0    8624.3635    24.601642    24.713621    22.751813    13833.003    9436.2912    8169.3945     8267.405   -152.12266   -337.96477   -606.31028   -7820.8607 
37817000    73.479135   -9874.4231   -9594.2872   -9874.4231            0    8656.1095    24.554327    24.731659    22.764686    13824.293    9410.2354    7667.1856    8890.9076    -59.04724     186.8017    1073.9121   -7849.1018 
37818000    73.496468   -9876.6169   -9596.4148   -9876.6169            0      7874.32    24.679774    24.714885    22.707828    13850.816    7702.5078     8266.811    7653.6413   -128.44707    129.13589    785.68732   -8005.8026 
37819000     75.96114   -9884.0408   -9594.4423   -9884.0408            0    7818.7539    24.695206    24.661208    22.750656     13855.46    7559.4303    8031.9303    7864.9011    256.24348    -303.9585   -183.28054   -8014.5249 
37820000    74.605038   -9873.2165   -9588.7881   -9873.2165            0    8752.8863    24.668811    24.609291    22.769141    13822.734     8965.153    9118.1045    8175.4015    42.920977   -899.09129    55.532589   -7824.2902 
37821000    75.316169   -9871.1056    -9583.966   -9871.1056            0    8062.0028    24.671455    24.704797    22.733612    13856.211    8362.1148    7839.1807    7984.7128    -100.8801    52.212243   -158.43107   -7954.8075 
37822000    77.500149   -9876.0915   -9580.6256   -9876.0915            0    7577.2093    24.651965     24.66722    22.829857    13882.732    7888.4393    7887.3083    6955.8801   -113.94432    359.02027    352.06903   -8046.5028 
37823000    72.959492    -9884.693   -9606.5381    -9884.693            0    7823.1501    24.629688    24.710363    22.777005     13862.28    8043.2552     8385.598    7040.5971   -88.277828    335.32323   -328.27884   -8024.9543 
37824000    74.502949   -9860.7586   -9576.7193   -9860.7586            0    8450.4166    24.694299    24.703215    22.684718    13838.326    8127.5744    8329.4058    8894.2695   -228.54365    74.265974    77.426214   -7871.2749 
37825000    76.556181   -9866.6014   -9574.7343   -9866.6014            0    7732.3055    24.689199    24.665217    22.776944    13870.349    7376.9472    8114.1775    7705.7919   -163.53862   -394.10054    524.77472   -8010.6063 
37826000    77.390688   -9877.4653   -9582.4167   -9877.4653            0     8098.221    24.629544    24.686563    22.776824    13848.737    8222.1972    8294.9426    7777.5234    138.68707    183.58174    472.04933   -7946.8221 
37827000    74.392753   -9879.0209   -9595.4018   -9879.0209            0    8429.1693    24.647625    24.688817    22.743193    13839.704    8456.7592     8567.384    8263.3646   -157.31385   -334.86889   -585.65129   -7894.0761 
37828000    77.286144   -9869.9792   -9575.3292   -9869.9792            0    7548.9114    24.772641    24.651693    22.727341    13879.304    7138.7401    7818.0507    7689.9435   -49.167137    -329.0789   -23.150548   -8047.3132 
37829000    75.158299   -9872.5974   -9586.0597   -9872.5974            0    8450.4653    24.682132    24.679513    22.704389     13830.22    8655.7453    8046.6228    8649.0278   -275.10408   -442.06134    323.92688   -7881.6045 
37830000    76.171753   -9873.4594   -9583.0579   -9873.4594            0    8107.3465     24.66003    24.660417    22.772314    13848.451    7883.7127    8855.5718    7582.7549   -208.77501   -608.43728    270.03168    -7945.654 
37831000    77.893161   -9870.0281   -9573.0638   -9870.0281            0    8530.5087    24.714286    24.693901    22.690242    13847.676    7993.8121    8236.3219    9361.3921   -200.84632   -274.54038     7.793114   -7850.2922 
37832000    74.930696   -9873.9065   -9588.2365   -9873.9065            0    7670.1282     24.65615    24.707691     22.76318     13867.25    7830.5147    7451.7894    7728.0805    65.327851   -425.08367    725.63234   -8037.0327 
37833000    73.797279   -9883.7974   -9602.4485   -9883.7974            0    7948.0929    24.677048    24.663727     22.76524    13855.562    7711.9763    8344.9156    7787.3869   -176.73042   -504.44579   -102.39286    -7996.384 
37834000    77.554239   -9866.7607   -9571.0885   -9866.7607            0    8273.3887    24.685767    24.704673    22.713875    13852.143     7693.796    8682.5685    8443.8016    36.506377   -227.07562   -473.98647   -7899.7044 
37835000     72.99654   -9863.1285   -9584.8324   -9863.1285            0    8114.8395    24.563189    24.759052    22.763445    13843.846    9210.1457      7051.36    8083.0129   -30.809515    307.86336    537.99309   -7946.4601 
37836000    74.954917   -9860.1747   -9574.4124   -9860.1747            0     9156.549    24.672282     24.61916    22.726591    13804.378    9416.3016    8733.9706     9319.375    718.70462   -545.87085   -227.93933   -7730.9913 
37837000    76.083179   -9875.3861   -9585.3223   -9875.3861            0    8135.5334    24.746941    24.662311    22.687438    13846.523    7546.5967    8545.7331    8314.2704    182.51224     57.10425   -251.67817   -7942.4543 
37838000    77.175227   -9867.6715   -9573.4444   -9867.6715            0     8018.407    24.669613    24.756829    22.682708    13853.269    7874.1292    7510.0818      8671.01   -316.06183   -611.98369    -111.1774   -7953.4397 
37839000    72.040112   -9872.4871   -9597.8374   -9872.4871            0    8352.3368     24.60445    24.668279    22.808032    13843.322    8367.4353    9042.5251    7647.0499   -155.27228   -284.17507   -23.932266   -7911.5786 
37840000    77.933385   -9873.4244   -9576.3068   -9873.4244            0    8567.4661    24.625852    24.699876    22.721341    13820.381    9057.6794    8268.3876    8376.3312   -438.50824    123.94011   -223.69934   -7849.4819 
37841000    75.380045   -9881.0168   -9593.6337   -9881.0168            0    8439.8122    24.683144    24.700827    22.687633    13832.516    8484.0914    7995.0275    8840.3176   -106.38364   -256.23958   -240.92707   -7891.0446 
37842000    77.766848   -9876.0761   -9579.5934   -9876.0761            0    8423.2193    24.614703    24.697545    22.743073    13826.032    8970.3112    8181.8949    8117.4518   -566.61343   -416.29534   -76.994052   -7881.1482 
37843000    78.252906   -9876.9396   -9578.6038   -9876.9396            0    8303.8853    24.580559    24.733854    22.762591    13839.017    9098.2354    8193.1955    7620.2251    318.20703    410.03055   -296.87818   -7902.6483 
37844000    77.282517   -9880.7182    -9586.082   -9880.7182            0    7885.5381      24.6519     24.72685    22.731191    13856.112    8046.6721    7537.9229    8072.0193     204.2952   -396.66109   -436.75845   -7992.5947 
37845000    73.237003   -9876.3533   -9597.1405   -9876.3533            0    8993.6037    24.740969    24.559054    22.739385    13816.787    8071.9482     9914.298    8994.5649   -195.29691    -236.8702    58.970604   -7784.8964 
37846000    77.354822   -9876.2507   -9581.3389   -9876.2507            0    8426.3725    24.650075    24.734516    22.698502     13839.45    8387.8141     7636.101    9255.2023   -478.17544   -627.61962   -167.31577   -7880.6088 
37847000    79.519136   -9878.3289   -9575.1657   -9878.3289            0    8340.9686    24.652473    24.725508    22.692566    13832.138    8382.0253    8539.6914    8101.1891    135.78511    69.273171    221.00159   -7892.5625 
37848000    74.178507   -9882.9025   -9600.1002   -9882.9025            0    8144.7737    24.684806    24.610186    22.775377    13835.988    7525.9095    8647.0577    8261.3537    106.75681   -286.56805    28.287304   -7956.6177 
37849000    74.858318   -9863.7332   -9578.3392   -9863.7332            0    8260.0916     24.67688    24.677165    22.753431    13855.826      8441.86    8090.7758    8247.6391   -103.65773   -799.79196   -57.894185   -7909.1977 
37850000    74.794615   -9882.4684   -9597.3172   -9882.4684            0    7840.5066    24.612604    24.678015    22.827469    13865.181    8226.3972    8294.7064    7000.4162   -388.62474   -226.22913   -314.14741   -8011.8927 
37851000    76.110766   -9878.8727   -9588.7038   -9878.8727            0     8042.361    24.583646    24.741573    22.786651    13859.709    8477.9291    7886.2211    7762.9327   -178.02181   -196.68697    200.16516   -7963.1043 
37852000    76.709339   -9868.5478   -9576.0968   -9868.5478            0    7955.8121     24.70471    24.700451     22.71287    13859.791    7920.7755    7813.8505    8132.8104   -86.504773   -359.62536     -314.859   -7967.9819 
37853000    76.907198   -9873.0112   -9579.8059   -9873.0112            0    8296.0723    24.741161    24.707158    22.643374    13841.527    7429.2019    8317.0582    9141.9569   -235.74097   -607.94158    866.33944   -7905.1236 
37854000    75.978342   -9875.6105   -9585.9464   -9875.6105            0    8032.0356    24.640163    24.662537    22.804499    13858.041    7897.2191    8372.9022    7825.9855    62.494067    -564.2291   -429.26387   -7962.6293 
37855000    77.352349   -9871.8732   -9576.9708   -9871.8732            0    8911.1814    24.639665    24.678644    22.743071     13829.46    9105.2438    8823.0514    8805.2489   -187.22168   -921.19108   -443.49484   -7779.6881 
37856000    76.681412   -9883.3928   -9591.0483   -9883.3928            0    8327.3574    24.757629    24.692835    22.613782     13824.62     7957.162    8088.3775    8936.5328   -212.66471   -7.6328059    700.04962   -7912.1039 
37857000    77.160702   -9881.9178   -9587.7461   -9881.9178            0    7524.7905    24.679662    24.684939    22.763952    13868.163    7234.7805    7891.5453    7448.0457   -462.35088    97.778254    366.63684   -8065.8351 
37858000    76.405538   -9873.5884   -9582.2957   -9873.5884            0    8596.3834    24.678632    24.678691    22.729922    13843.349    8386.3575    8451.3611    8951.4317      -208.93   -194.25236     509.0963   -7846.7628 
37859000    75.532085   -9875.3035   -9587.3407   -9875.3035            0    8255.2039     24.71757    24.639034    22.719499    13836.562    7667.2731    8681.4555     8416.883   -122.92886    309.84114    24.300062    -7921.506 
37860000    73.946612    -9873.978   -9592.0597    -9873.978            0     8283.425    24.646412    24.706349    22.735789    13844.341    8406.8317    8002.3441    8441.0991    262.35155    719.72153   -59.827717   -7919.5905 
37861000    75.868193   -9875.4855   -9586.2414   -9875.4855            0    8015.8139    24.569981    24.744764    22.772831    13845.388    9088.2673    7036.5798    7922.5947   -104.03148    670.04207   -13.818376   -7967.6819 
37862000    76.192605   -9872.9252   -9582.4443   -9872.9252            0    8206.6708    24.661457    24.686068    22.763876     13858.52     8665.635    7923.3062    8031.0713    239.68676    403.32638   -271.79288   -7923.7751 
37863000    75.110311   -9868.6104   -9582.2556   -9868.6104            0    8271.1536    24.712005    24.745254    22.630734    13838.804    7903.3926    8720.9911    8189.0771   -141.73315    93.962928    133.85537    -7912.932 
37864000    76.268318   -9854.0556    -9563.286   -9854.0556            0    8598.5234    24.688008    24.670654     22.72725     13842.47    8329.1428    8412.0843    9054.3432    461.59351    -134.1109    400.65683   -7827.4313 
37865000    79.468708   -9874.3847   -9571.4137   -9874.3847            0    8149.6304    24.644081    24.693032    22.766931    13854.522    8928.5097    7605.1687    7915.2128    356.02173     47.09364    452.46138   -7924.7484 
37866000    75.116429   -9877.5774   -9591.1993   -9877.5774            0    8241.3912     24.70275    24.727022    22.655664    13838.656    7722.4833    7765.0079    9236.6823   -526.02175   -157.94616    551.73617   -7927.9003 
37867000    74.701504   -9885.4935   -9600.6973   -9885.4935            0    8191.1597    24.691934    24.690787    22.717222    13849.856    7924.2642    8090.1478     8559.067   -174.65186   -35.705822    286.79301   -7946.1982 
37868000    71.415895   -9873.6735   -9601.4036   -9873.6735            0    8017.8097    24.666003    24.651371    22.793272    13859.468    8277.1305    8083.2471    7693.0514    291.77151   -497.15137    51.170371   -7980.7948 
37869000    75.481082   -9874.6429   -9586.8746   -9874.6429            0    7915.7794    24.730641    24.695138    22.708603    13868.748    6944.5429    8555.0943    8247.7011   -40.801301   -396.22107    970.87605   -7985.8175 
37870000    75.814917   -9877.6097   -9588.5687   -9877.6097            0    8480.1113    24.684685    24.656621    22.728689     13833.61    8378.6338    8798.7268    8262.9733   -210.47828   -158.91126    383.57704   -7877.7145 
37871000    74.762581   -9877.7023   -9592.6732   -9877.7023            0    7198.7719     24.65177    24.703348     22.80388    13887.135    7574.1614    7421.6952    6600.4589   -447.40384   -225.52365    613.87803   -8134.7087 
37872000    76.483782   -9866.5492   -9574.9581   -9866.5492            0     8087.681    24.698396    24.708336    22.697603    13851.354    7929.1541    7938.0532    8395.8357   -97.316921    218.37165    526.24303   -7941.1835 
37873000    75.323937    -9877.909   -9590.7398    -9877.909            0    8360.4257    24.587374    24.698326    22.786399    13837.428    8840.9144    8602.5745    7637.7883    298.65394    392.07312   -393.15916   -7903.5667 
37874000    75.834898     -9863.23   -9574.1127     -9863.23            0    8376.1335    24.673283    24.779845    22.645656    13845.557    8453.7035    7840.2487    8834.4482   -161.95608   -251.89331    339.04289   -7882.7766 
37875000    74.785215   -9861.1073    -9575.992   -9861.1073            0    7733.1889    24.641316    24.711394    22.792629    13878.916    7870.4255    8187.0111    7142.1302    462.63338    -757.4965   -327.82352   -8010.7191 
37876000    76.742748   -9879.7937   -9587.2153   -9879.7937            0    7920.5445    24.692146    24.686036    22.737896    13859.913    7793.4174    7878.1513    8090.0647   -379.02237   -403.02506    324.26281    -7986.215 
37877000    77.011146   -9874.4943   -9580.8927   -9874.4943            0    8069.6561    24.637717    24.726064    22.738975    13852.442    8797.8503    7574.6224    7836.4956    -514.5321    47.168761   -437.35874   -7950.6313 
37878000     74.42761   -9869.7073   -9585.9553   -9869.7073            0    8201.9599    24.572046    24.743986    22.751326    13833.042    8992.3334    7565.4412     8048.105    245.65352    186.89497   -194.43946    -7931.286 
37879000    75.940217   -9870.6961   -9581.1774   -9870.6961            0    8011.5897    24.685317    24.674767     22.75954    13862.937    8266.6484    7541.7317    8226.3891   -82.288055   -619.57383    -211.4601   -7961.4205 
37880000     75.62897   -9881.0833   -9592.7512   -9881.0833            0    8635.6348    24.677103    24.712929    22.668448    13824.205    8358.8113    8331.9797    9216.1136   -532.93779    220.69702    -252.4926   -7851.7048 
37881000    75.557019   -9880.0618   -9592.0039   -9880.0618            0    8786.3316    24.647892    24.680959    22.711192    13815.981    8917.5283    8406.8885    9034.5779    370.76866   -812.88374    572.53522   -7821.6292 
37882000    75.056983   -9875.1918   -9589.0404   -9875.1918            0    8262.5724    24.708176    24.668736    22.721821    13849.392    7503.1325    8362.0023    8922.5823   -141.03106    92.960332    664.54028   -7920.1728 
37883000    73.935698   -9870.1229   -9588.2463   -9870.1229            0    8161.8872    24.640737    24.702118    22.746814    13845.494    7979.0903    8331.0263    8175.5449   -83.579993   -216.93219   -265.75849    -7940.179 
37884000    74.536226   -9881.0375   -9596.8714   -9881.0375            0    8127.6585    24.702173    24.792964    22.611324    13848.081    8027.9579    7457.8451    8897.1724   -311.44765    -490.7603    102.71224    -7955.409 
37885000    75.887582    -9886.316    -9596.998    -9886.316            0    8893.9455    24.705994    24.624545    22.709792    13816.044     8491.822    9562.5932    8627.4215   -195.49635   -523.85995   -226.33591   -7804.9317 
37886000    76.342973   -9875.9161   -9584.8619   -9875.9161            0    7649.4803    24.634219     24.71693    22.785266    13873.545    7775.2453      7132.15    8041.0456   -398.34961   -393.58997    -835.6808   -8037.1317 
37887000    76.098928   -9882.7764   -9592.6526   -9882.7764            0    7768.9539    24.626967    24.778561    22.715647    13861.561    8155.5481    7299.7723    7851.5412    -554.9999   -434.30222     479.6235    -8022.107 
37888000     77.92554   -9879.7191   -9582.6314   -9879.7191            0     8563.315    24.653103    24.710036    22.692193    13823.609      8023.38    9045.1879    8621.3772   -231.23744    432.71173    220.08521     -7856.24 
37889000    73.956053   -9878.3366   -9596.3824   -9878.3366            0    7983.2399    24.634495    24.698248    22.760128    13847.919    8565.9152    7692.7252    7691.0794   -538.63369    -50.23193    58.350778   -7984.1057 
37890000    75.357831   -9873.5583   -9586.2598   -9873.5583            0    7529.3514    24.645626    24.778428    22.707356    13866.925    8087.9076    6567.5301    7932.6166   -520.84947   -458.32534    305.91405   -8063.5624 
37891000    73.592705   -9873.4881   -9592.9191   -9873.4881            0    8567.3446    24.661582    24.714181    22.684397    13825.932    8511.5663    8334.1433    8856.3242   -205.09073   -204.73219    689.20047   -7865.4252 
37892000    72.074044    -9871.061   -9596.2819    -9871.061            0    8619.5213    24.669889    24.660338    22.745316    13837.518    8808.5511    8557.7277     8492.285    309.53515    73.736823    201.31118   -7856.8108 
37893000    74.457553   -9862.8115   -9578.9453   -9862.8115            0    8701.3607    24.690062    24.641183    22.710497    13816.892    8335.0725    8843.2202    8925.7895   -299.00939   -763.01136   -179.74777   -7825.5759 
37894000    74.702849   -9868.6983    -9583.897   -9868.6983            0    9044.2769    24.633975    24.666255     22.73562    13814.797     9299.288    9109.9558    8723.5869   -265.67891   -581.28415    244.09913   -7761.7046 
37895000    78.955141   -9868.9688   -9567.9558   -9868.9688            0     8230.417    24.648681    24.689909    22.761177    13851.853    8126.5949    8054.4102     8510.246    -572.3411   -75.740309    -558.7937   -7905.2875 
37896000    75.977359   -9876.4237   -9586.7633   -9876.4237            0    8094.8219     24.64806    24.673464    22.779548    13853.451    8492.7818    8079.2054    7712.4786   -341.87855    279.35241    60.304052   -7951.2986 
37897000    75.393569   -9874.1717   -9586.7371   -9874.1717            0    8436.8901     24.72718    24.695095    22.662316    13838.518    8278.1791    8421.3906    8611.1007   -272.73031   -1282.1193   -225.24083   -7883.9989 
37898000    74.097612   -9880.0273   -9597.5334   -9880.0273            0    8079.8169    24.696768    24.731086    22.673986    13848.769    7853.6541    7790.2178    8595.5788   -292.16869    160.17011    -404.0409    -7965.652 
37899000    75.415212   -9869.9377   -9582.4205   -9869.9377            0    8536.9375    24.677006    24.665493    22.726945    13833.222    8262.6962    8894.7463    8453.3699   -335.26594   -511.39237    474.14028   -7860.1501 
37900000    76.195535   -9879.2756   -9588.7834   -9879.2756            0    8642.5434     24.66999    24.698331    22.693746    13827.471    9216.2359    7953.9381    8757.4563    569.34101   -72.313994   -348.91437   -7845.9326 
37901000    75.197826   -9869.8597   -9583.1713   -9869.8597            0    8458.8666    24.639531    24.652583    22.781082    13837.869    8719.1834    8572.3135    8085.1028    153.73083    68.957884   -140.51622   -7876.0779 
37902000    74.331607   -9875.5937   -9592.2077   -9875.5937            0    8038.1281    24.624689    24.661368     22.81009    13852.078    8029.1538    8474.4159    7610.8145   -435.38868   -605.06393    4.8889686   -7968.3584 
37903000    74.921774   -9863.8821   -9578.2461   -9863.8821            0    8679.2384     24.62643    24.745349    22.711399    13840.091    8626.1422    8404.2973    9007.2758   -455.99519    155.17325     171.6475    -7826.398 
37904000    75.948313    -9888.144   -9598.5944    -9888.144            0    8259.9572    24.628281    24.711518      22.7366    13837.545    8411.2256    8087.2773    8281.3686   -511.46292   -163.30295    425.66203   -7931.6822 
37905000    73.963279   -9867.8272   -9585.8455   -9867.8272            0    8200.0688    24.670864    24.672192    22.764006    13856.093    8520.2081     8081.751    7998.2474   -423.91334    158.42603    606.62573   -7928.8009 
37906000    72.139906   -9886.7472    -9611.717   -9886.7472            0    8550.4166    24.676047    24.723522    22.667986    13829.257    8451.7141    8117.9304    9081.6053   -391.67317   -946.21905    164.66915   -7887.2217 
37907000    74.791224   -9873.8783   -9588.7401   -9873.8783            0    8833.7925    24.592847    24.748993    22.708358    13821.401    9866.2327    8032.8723    8602.2724    151.21775   -410.65535   -380.84008   -7808.1041 
37908000    75.502987   -9870.1407   -9582.2889   -9870.1407            0    8610.1506    24.688578     24.63875    22.734228    13829.133    8127.6188    9102.6865    8600.1464    184.06455     -296.788     448.7697   -7845.7617 
37909000    76.193307   -9868.5636     -9578.08   -9868.5636            0     8003.243    24.630269    24.634986    22.847087    13862.843    7482.5928    9096.4778    7430.6585   -567.45425    667.83633    -598.7478   -7960.0216 
37910000    74.040525   -9863.3345   -9581.0583   -9863.3345            0    9167.7998    24.638144    24.683934    22.710297    13811.638    9435.9269    9494.9886     8572.484    15.329109    222.75677    272.07199   -7734.4015 
37911000     73.96042   -9880.7657   -9598.7948   -9880.7657            0    8353.2063    24.703916    24.692106    22.674804    13831.443    7939.9176    8538.9116    8580.7898    606.17522    531.39014   -114.74879   -7913.8077 
37912000    77.611598    -9881.084   -9585.1932    -9881.084            0    8817.6933    24.661892    24.650008    22.732287    13819.317    8568.1636    9194.5217    8690.3946   -419.68819    918.58657   -299.05422   -7808.0703 
37913000    77.041058   -9872.3112   -9578.5955   -9872.3112            0    8694.3411    24.648367    24.684927    22.715626    13821.167    8575.9661    8182.1314    9324.9259    560.81118   -562.33759    798.20398   -7826.0986 
37914000    73.136063   -9875.7571   -9596.9291   -9875.7571            0    7784.0127    24.690242    24.755292    22.689017    13867.848    7362.9011    7670.0344    8319.1025    53.646435   -93.856388   -794.60202   -8022.6255 
37915000    75.924934   -9871.4061   -9581.9457   -9871.4061            0    8414.9893    24.670251    24.623504    22.774722    13834.916    7798.1906    9417.2821    8029.4953   -627.68833    14.418227    334.37712   -7884.0696 
37916000    75.932255   -9867.1561   -9577.6678   -9867.1561            0    8000.8956    24.690959    24.680206    22.746333    13861.114    7394.7316    8634.3288    7973.6264    249.39541   -58.930121    255.61111   -7960.2857 
37917000    72.658708   -9875.6928   -9598.6846   -9875.6928            0    8163.3809    24.737516    24.695013    22.654062    13839.214     7834.923     8040.564    8614.6558   -407.32156    54.871405    17.057723   -7951.0634 
37918000    78.541415    -9870.247   -9570.8113    -9870.247            0    7714.9316    24.635233    24.736666    22.755546    13867.082    7763.3306    7602.6348    7778.8293    -252.7019   -167.44211    445.53677   -8010.5654 
37919000    74.676708   -9868.3354   -9583.6337   -9868.3354            0    8811.4841    24.649172    24.643636    22.763326    13827.473    8233.7743    9417.2289    8783.4493   -392.72172    284.32947   -86.315343   -7806.7141 
37920000    74.969635   -9874.2368   -9588.4183   -9874.2368            0    8953.2785    24.642797    24.712296    22.685287    13814.888    9538.5675    7967.5394    9353.7285   -9.3502982   -333.46213   -147.15925   -7784.5478 
37921000    74.670645    -9875.256   -9590.5775    -9875.256            0    8532.7828    24.691385    24.635072    22.745613    13835.566    7985.9258    9162.5893    8449.8333   -199.56206   -462.35554    443.50063   -7868.8536 
37922000    74.683738   -9875.5905    -9590.862   -9875.5905            0    7517.9572     24.75523    24.635358    22.749332     13873.77    7014.2414     7958.563    7581.0672   -9.2406266    -137.0814   -236.78594   -8069.7184 
37923000    73.525782   -9866.7835   -9586.4697   -9866.7835            0    8154.3909    24.690268    24.660781    22.744463    13848.677     8268.382    8182.7601    8012.0308   -134.48511   -946.86189   -397.15457   -7939.5375 
37924000    76.892346    -9887.837   -9594.6883    -9887.837            0    7458.1984    24.675344    24.723274    22.733817    13868.886     7535.019    7216.7054    7622.8708   -431.94776   -147.59682    367.76663   -8086.1672 
37925000    77.819443    -9884.351   -9587.6678    -9884.351            0    7695.1243    24.672965    24.711772    22.724061    13855.148    7566.0443     7621.619    7897.7096   -27.141186   -44.501454   -76.514464    -8032.767 
37926000    76.034272   -9879.2538   -9589.3765   -9879.2538            0    8173.1919    24.625351    24.614313    22.845273    13847.345    8008.0354    9268.6022    7242.9381    519.80308    62.789273    172.10821   -7938.8059 
37927000    77.102333    -9875.237   -9581.2878    -9875.237            0    8039.3174     24.63471    24.701949    22.777252    13860.535    8111.9861    8161.0986    7844.8677   -50.110883   -1.6480202    43.077663   -7956.2066 
37928000    72.389348   -9860.5141   -9584.5329   -9860.5141            0    8846.0649    24.670632    24.733368     22.66961     13832.72    8755.3967    8500.6755    9282.1226    763.76922    765.95309    797.27862   -7799.9629 
37929000    75.474509   -9876.9954   -9589.2521   -9876.9954            0    8373.8723    24.618186     24.72572    22.728956     13835.17    9277.7429    7911.5028    7932.3712   -232.35521   -70.970566   -300.48739   -7899.6411 
37930000    76.810742   -9889.6158   -9596.7782   -9889.6158            0    8090.4693    24.620573    24.641495    22.835946    13854.288    7989.4091    8646.9754    7635.0234    45.598408    173.95869    832.11812   -7962.0942 
37931000    74.595387   -9875.7565   -9591.3649   -9875.7565            0    7206.8912    24.677843    24.745752    22.736685    13884.652     7515.617    6817.5713    7287.4854   -65.166432   -256.85374    362.92911   -8132.0169 
37932000    78.478803   -9872.1672   -9572.9702   -9872.1672            0    8495.4905    24.650528    24.669389    22.742329    13829.917    8512.8043     8754.419    8219.2482   -610.10962   -633.64513   -360.30851    -7859.471 
37933000    76.068579   -9873.9549   -9583.9468   -9873.9549            0    8586.1547     24.68115    24.593587     22.78567    13830.857    8589.3166    9057.6598    8111.4876   -584.09741   -267.60278   -446.29803   -7852.0433 
37934000    73.735933   -9861.6094   -9580.4944   -9861.6094            0    8613.7025    24.584493    24.724318    22.747783    13826.895    8984.4155    8535.4303    8321.2618   -115.42413    143.46923    403.67898    -7843.532 
37935000    77.712863   -9866.0039   -9569.7271   -9866.0039            0    8703.4252    24.643441    24.683346    22.736382    13830.145    8352.4738    8931.9264    8825.8753    -157.5088     294.5054   -48.874056   -7814.2595 
37936000    77.206542   -9868.9671   -9574.6205   -9868.9671            0    8235.2873    24.638679    24.699691    22.754794    13847.834    7893.8082    8532.9156     8279.138   -316.88548   -637.65802    39.953663   -7911.4511 
37937000    73.468807   -9878.7039   -9598.6073   -9878.7039            0    8362.5826    24.667559    24.717566    22.701852     13841.82    8817.8997    7337.2911    8932.5571   -231.42244   -383.48738    460.32994   -7910.4633 
37938000    76.975179   -9867.8325   -9574.3681   -9867.8325            0    8167.4842    24.634714    24.618922    22.843315    13854.016    8035.9893    8995.0998    7471.3633     301.0905   -335.42288    136.36244   -7924.1555 
37939000    72.756931   -9876.3859   -9599.0033   -9876.3859            0    8726.0319    24.675168    24.639122    22.738868    13824.651    8908.1728     8784.809     8485.114   -233.94289   -58.667936     -447.533   -7839.6751 
37940000    78.931398   -9872.0802   -9571.1577   -9872.0802            0    8731.3324     24.68703    24.679102    22.691579    13824.929    9148.7102    8123.8733    8921.4136    127.59781   -129.97133    719.19805   -7810.7254 
37941000    74.626434   -9865.7018   -9581.1918   -9865.7018            0    7983.4535     24.69183    24.675828    22.732401    13850.655    7798.8838    8379.3221    7772.1547   -87.150047   -670.24175    -116.4408   -7968.5533 
37942000      79.3149     -9881.83   -9579.4455     -9881.83            0    8181.9871     24.67313    24.637711    22.795499    13857.143    7833.7385    8698.8335    8013.3892   -664.64745    445.55545    158.34084   -7925.9296 
37943000     74.81291   -9872.5105   -9587.2896   -9872.5105            0    8099.9964    24.654596    24.785899    22.675028      13856.4    8654.4838    7635.2092    8010.2962    219.54285   -448.76357    162.99642   -7950.4312 
37944000    76.981839   -9883.4096   -9589.9197   -9883.4096            0    8093.7613    24.681582     24.76925    22.643238    13842.815    8006.7186    7490.5359    8784.0294    477.90729    17.645519    508.10457   -7955.9248 
37945000    74.697672   -9866.9539   -9582.1724   -9866.9539            0    8414.0664    24.626489    24.685411    22.760584      13836.5    8374.1518    8679.6449    8188.4025   -107.28825   -82.931505   -266.78869   -7884.2881 
37946000    74.908449   -9866.8069   -9581.2217   -9866.8069            0    8400.4431    24.719611     24.59274    22.763629    13838.533     7672.303    9330.3401    8198.6862   -661.81175   -451.73678    91.232531   -7885.8375 
37947000    76.891856    -9878.531   -9585.3842    -9878.531            0    8027.6105    24.641677    24.738523    22.716305     13847.83    8470.0351     7549.472    8063.3244   -65.005674   -471.02468    132.84486   -7964.1569 
37948000    77.029511   -9876.8815   -9583.2099   -9876.8815            0    7566.3596    24.629307    24.719595    22.794923    13878.153     7884.619    7549.5114    7264.9482    14.124392   -319.13456   -214.41961   -8051.7891 
37949000    76.269733   -9861.8581   -9571.0831   -9861.8581            0    9069.8804    24.711672    24.669816    22.669273    13819.923    8045.7787    9186.9119    9976.9505   -210.24329   -499.96056    228.34973   -7743.0542 
37950000    76.688169   -9880.1271   -9587.7569   -9880.1271            0    8335.8253    24.647489     24.74551    22.715623    13854.592    8271.1974    8106.7928    8629.4856    479.68157    50.157659   -295.76696   -7903.4616 
37951000    76.662019   -9869.1238   -9576.8533   -9869.1238            0     7769.512    24.656328    24.682244     22.78405    13865.769    7806.6848    8274.2911    7227.5602   -145.15326   -31.061822    540.10145   -8005.7179 
37952000    75.519102   -9879.1902    -9591.277   -9879.1902            0    7790.7612    24.753653    24.682674     22.69265    13864.899    6671.9644    8087.4977    8612.8215   -348.55513   -923.79944   -258.59612   -8015.9435 
37953000    75.295792   -9885.6382   -9598.5763   -9885.6382            0    7941.0677     24.68024    24.654224    22.744244    13839.239    8369.3015    8353.4655    7100.4362    -53.26267   -278.17681    605.75136   -7995.8218 
37954000    77.199617   -9866.8857   -9572.5655   -9866.8857            0    9357.8857    24.611603    24.647739    22.742418    13796.014    8561.0701     10360.82    9151.7671   -368.18965   -434.15812    412.29661   -7689.7522 
37955000    74.824133   -9877.4644   -9592.2006   -9877.4644            0    8676.0724    24.660487    24.708289    22.694235    13828.016    8717.0974    8630.3875    8680.7324   -426.12176   -364.19103    148.51138   -7842.5194 
37956000    75.406472   -9900.3808   -9612.8969   -9900.3808            0    7305.7203    24.720385    24.734607    22.691383    13874.624    6928.9163    6953.4637    8034.7809   -136.98688   -549.08623    183.09061   -8134.6052 
37957000    75.949491   -9871.7249   -9582.1708   -9871.7249            0    8413.4215     24.68944    24.704719    22.685118     13836.69    7779.4915    8450.3589    9010.4141   -169.26742   -493.52357    67.424174   -7884.3934 
37958000     75.95576   -9873.0769   -9583.4989   -9873.0769            0    8720.1612    24.604307    24.654311    22.803769    13832.817    8808.6349    9467.6762    7884.1727    194.05255    39.619436    425.50699   -7824.3158 
37959000    75.575676   -9864.3916   -9576.2627   -9864.3916            0    8164.6199    24.689862    24.748504    22.662388    13847.561    7237.4868    8085.6038    9170.7691   -7.0624227    155.53064    244.24381   -7927.3975 
37960000    79.234935    -9882.767   -9580.6873    -9882.767            0    8392.0331    24.671054    24.648389    22.751522     13835.24    8621.0626    8900.4175    7654.6191   -578.09225   -484.06433    305.90873   -7887.4034 
37961000      75.1721   -9864.8244    -9578.234   -9864.8244            0    8120.9673    24.693488    24.663195    22.743441    13851.218    8164.8489    8608.4409    7589.6122   -220.82573    205.57302    792.83692   -7937.7515 
37962000    73.898023   -9864.4647   -9582.7318   -9864.4647            0    9236.9175    24.609776    24.699941    22.718179    13809.473    9815.1889    8963.5304    8932.0332   -123.08268   -311.47619   -61.295863   -7722.4444 
37963000    73.814878   -9872.8704   -9591.4544   -9872.8704            0    8317.7255    24.697026     24.66033    22.742141    13850.801    8097.6449    8686.3929    8169.1387   -269.18097   -500.99531    486.45201   -7911.2762 
37964000    76.215853   -9871.2486    -9580.679   -9871.2486            0     7851.759    24.723006    24.769874    22.630963    13858.879    6957.7089    7424.5556    9173.0124    24.472328   -416.64839     191.8928   -7993.7008 
37965000    74.867013   -9873.6112    -9588.184   -9873.6112            0    8249.2817    24.690007    24.656612    22.738619    13842.633    7557.3151    8843.7285    8346.8016   -144.64699     8.188791    363.22918    -7922.814 
37966000    72.121749   -9867.2953   -9592.3343   -9867.2953            0    9012.5323    24.683181    24.669758    22.690388    13816.815    8612.5693    9071.7229    9353.3047    8.3414249   -221.40257    132.93419   -7776.2724 
37967000    75.060257   -9864.7108   -9578.5469   -9864.7108            0    8395.0455    24.685348    24.689636    22.705006    13838.071    8217.8551    8445.4076    8521.8737   -170.99175   -155.66724    31.421873   -7884.3086 
37968000    76.244577   -9871.6454   -9580.9663   -9871.6454            0     8433.086    24.650928    24.688481    22.730668    13833.748    7868.3446     8885.344    8545.5695   -145.35643   -236.74699   -370.19067   -7879.5825 
37969000    76.272906   -9886.0659   -9595.2788   -9886.0659            0    8374.5107    24.593917    24.691738    22.770742     13827.91    8993.9247    7968.1244    8161.4829   -584.80069    -708.2377    687.88426   -7906.4257 
37970000    75.234067   -9873.1824   -9586.3559   -9873.1824            0    7967.2668    24.660629    24.753961    22.687966    13849.829    7828.2508    7855.1977     8218.352    -110.0223   -148.75983   -280.82027   -7977.0831 
37971000    76.682817   -9875.3004   -9582.9505   -9875.3004            0    8282.6988    24.649679    24.747925    22.679393    13835.074    8519.6709    7980.9241    8347.5013    121.24813   -497.87879   -215.47258   -7911.7474 
37972000    74.510107   -9879.5205   -9595.4539   -9879.5205            0    7913.3941    24.654706    24.654274    22.781593    13847.652    7661.6497    8874.4753    7204.0574   -438.93563    84.386432    1.4013037   -7997.3139 
37973000    75.333949   -9876.6763   -9589.4689   -9876.6763            0    8007.1117    24.655717    24.721511    22.729231     13854.07    7958.8789    7846.1187    8216.3374   -52.232132   -494.35207    214.23452   -7971.6528 
37974000    76.129143   -9858.4195   -9568.1805   -9858.4195            0    7842.0262    24.671495    24.790792    22.675632    13869.004    7782.5706    7309.3423    8434.1657    267.57912    111.93155    -140.9549   -7982.0115 
37975000     75.55656   -9876.4997   -9588.4437   -9876.4997            0    8551.5085    24.662196    24.676641    22.744845    13842.061     8691.253    8163.4817    8799.7907   -168.72023   -106.65865    792.17766   -7862.1313 
37976000    75.895109   -9873.7384   -9584.3916   -9873.7384            0    8926.2717    24.637593      24.6697    22.733225    13817.301    8704.2019     9260.313    8814.3002    254.25815    373.47212    58.627175   -7785.6483 
37977000    75.025906   -9863.3202   -9577.2872   -9863.3202            0    8696.2291    24.672259    24.639871    22.744438    13826.828     8791.707    8949.8559    8347.1244    244.50684    380.57152    118.38324   -7823.6917 
37978000      76.9011    -9872.875    -9579.693    -9872.875            0    8237.9406    24.585266    24.726756    22.764763    13839.016     8775.001    7847.6847     8091.136    117.94026   -104.12717    291.21042   -7917.0472 
37979000    74.258501   -9878.9208   -9595.8136   -9878.9208            0    7641.1325    24.653601    24.687534    22.794708    13873.693    7670.7957    7748.3445    7504.2573    -545.3503   -626.63852    689.22872   -8049.7558 
37980000    72.797509   -9860.9801   -9583.4428   -9860.9801            0    8085.3595    24.686243    24.752897    22.680615    13859.127    7988.2974    8212.7011      8055.08   -53.315122    300.97336   -359.65664   -7949.2206 
37981000    79.513961   -9876.2721   -9573.1286   -9876.2721            0    8230.8812     24.65126    24.640263    22.792761    13844.632    8495.6668    8553.5727    7643.4041   -159.64888   -503.36904   -535.07671   -7911.2335 
37982000    75.609449   -9866.0014   -9577.7437   -9866.0014            0    8679.9198    24.645268    24.690681    22.728758    13830.641    9030.2033    8408.9577    8600.5983   -285.72108    241.11665    721.81799   -7826.9542 
37983000    76.620178   -9867.0335   -9574.9224   -9867.0335            0    7968.9111    24.657481    24.735793    22.731272    13864.311    7569.5191     7570.478     8766.736   -54.923733    -92.68464   -1044.8831   -7963.6345 
37984000    74.053559   -9858.8442   -9576.5182   -9858.8442            0    8239.2968    24.675888     24.66647    22.737471     13839.55    8058.7161    8250.1081    8409.0663   -448.90504    194.61005    615.59473   -7913.5345 
37985000     75.18938   -9880.1638   -9593.5076   -9880.1638            0    8207.7251    24.663764    24.733733    22.673352    13831.356     8010.959    7839.1965    8773.0198   -86.753924    133.96678    549.08391    -7937.877 
37986000     76.81816   -9870.3127   -9577.4469   -9870.3127            0    8142.7996    24.646107    24.632279    22.805468    13844.967    8308.4705    8467.5078    7652.4206   -106.64479     -491.564    962.65417   -7933.2964 
37987000    75.512392   -9875.3014   -9587.4137   -9875.3014            0    8898.8502    24.676007    24.705829    22.651159     13809.08    9003.0924    8371.5417    9321.9166   -492.25788   -117.41649   -443.76663   -7795.2629 
37988000     75.60503   -9856.6135   -9568.3726   -9856.6135            0    8367.6619    24.658891    24.731308    22.703698    13845.773    8676.8193    7847.0126    8579.1537   -213.91141   -535.50818   -547.47342   -7878.7208 
37989000     76.75918   -9873.0356   -9580.3946   -9873.0356            0    8049.4177    24.659602    24.680717    22.747466    13844.487    8558.8623    8285.6124    7303.7783    -176.6834   -468.80504    307.32699   -7955.1557 
37990000    78.517827   -9874.0225   -9574.6767   -9874.0225            0    8231.2183    24.657215    24.675653    22.754925    13844.845    8495.3727    7977.1397    8221.1426   -147.03934   -484.60701    559.93498   -7912.6879 
37991000    75.497974   -9867.0622   -9579.2295   -9867.0622            0    7728.0447    24.662309    24.767037     22.69104    13859.967    8091.5616    7222.2099    7870.3626   -588.89011    151.33193   -87.381993   -8017.1336 
37992000    79.072253   -9879.9721   -9578.5127   -9879.9721            0    7817.9879    24.686292    24.680448    22.752378    13862.312    7091.6379     8445.096    7917.2298   -311.26653   -430.44529     236.6032   -7997.9688 
37993000    76.645899    -9880.155   -9587.9459    -9880.155            0    8428.3773    24.580373    24.722124     22.75327    13826.686    9161.5709    7959.4599    8164.1012   -454.48995    353.41451    338.54421   -7888.3802 
37994000    73.160725   -9870.0813   -9591.1592   -9870.0813            0    8219.4316    24.646759    24.762464    22.676432    13839.754    8836.7171    7559.1309    8262.4469   -241.83334   -245.23957   -241.45099   -7932.1605 
37995000    75.150447   -9872.1617    -9585.654   -9872.1617            0    7647.7942    24.579633    24.736112    22.794601    13859.221    8504.2182    7506.6786    6932.4858   -511.53046    -142.5598   -678.46654   -8039.8625 
37996000    74.295343   -9874.7723   -9591.5246   -9874.7723            0    7986.7589    24.651468    24.721541    22.732203    13853.511    8303.4038    7402.0453    8254.8277    24.579487   -567.23666   -650.01938   -7977.8859 
37997000    79.976348   -9877.8147   -9572.9084   -9877.8147            0    7700.0171    24.763709    24.706065    22.657951    13862.447    7403.1613    7169.8714    8527.0186   -375.01047   -333.16264     123.5284   -8016.1992 
37998000    73.737085   -9877.8461   -9596.7267   -9877.8461            0    8351.0125    24.673513    24.702773    22.703918    13838.133    8122.0815    8566.0086    8364.9474   -130.79614   -49.616422    476.15132   -7911.3672 
37999000    74.319907   -9886.0406   -9602.6992   -9886.0406            0    8200.8552    24.619561     24.62531    22.828752    13840.258     8086.335    8775.9399    7740.2907    41.662105    93.743666    93.731699   -7947.3897 
38000000    78.693214   -9876.1702   -9576.1558   -9876.1702            0    7999.7454    24.691323    24.696525    22.696799    13840.278    8171.8649    8132.1138    7695.2574   -215.01128    123.82978    339.11405   -7961.4372 
Loop time of 556.349 on 64 procs for 250000 steps with 1920 atoms

Performance: 77.649 ns/day, 0.309 hours/ns, 449.358 timesteps/s
384.5% CPU use with 16 MPI tasks x 4 OpenMP threads

MPI task timing breakdown:
Section |  min time  |  avg time  |  max time  |%varavg| %total
---------------------------------------------------------------
Pair    | 72.715     | 74.718     | 77.366     |  13.6 | 13.43
Bond    | 1.6264     | 1.8465     | 2.7261     |  18.7 |  0.33
Kspace  | 270.73     | 278.13     | 284.01     |  19.6 | 49.99
Neigh   | 0.12867    | 0.14084    | 0.15115    |   1.9 |  0.03
Comm    | 72.301     | 81.545     | 87.919     |  54.9 | 14.66
Output  | 0.45986    | 0.46016    | 0.46166    |   0.1 |  0.08
Modify  | 86.201     | 97.834     | 103.16     |  48.3 | 17.59
Other   |            | 21.68      |            |       |  3.90

Nlocal:        120.000 ave         123 max         118 min
Histogram: 3 0 4 0 3 0 3 0 2 1
Nghost:        4309.75 ave        4341 max        4259 min
Histogram: 1 0 1 0 3 2 2 3 2 2
Neighs:        43939.6 ave       44956 max       43029 min
Histogram: 2 1 2 1 2 3 2 0 2 1

Total # of neighbors = 703034
Ave neighs/atom = 366.16354
Ave special neighs/atom = 2.0000000
Neighbor list builds = 250
Dangerous builds = 0

unfix		3
unfix		2
unfix		1

write_data	data.final.${pid}
write_data	data.final.0
System init for write_data ...
PPPM initialization ...
  extracting TIP4P info from pair style
  using 12-bit tables for long-range coulomb (../kspace.cpp:340)
  G vector (1/distance) = 0.37530174
  grid = 30 30 30
  stencil order = 5
  estimated absolute RMS force accuracy = 0.0031742305
  estimated relative force accuracy = 9.559101e-06
  using double precision FFTW3
  3d grid and FFT values/proc = 7920 1800
Last active /omp style is kspace_style pppm/tip4p/omp
WARNING: Not all mixed pair coeffs generated from mixing. Use write_data with 'pair ij' option to store all pair coeffs. (../write_data.cpp:312)

write_restart   restart.lmp.${pid}
write_restart   restart.lmp.0
System init for write_restart ...
PPPM initialization ...
  extracting TIP4P info from pair style
  using 12-bit tables for long-range coulomb (../kspace.cpp:340)
  G vector (1/distance) = 0.37530174
  grid = 30 30 30
  stencil order = 5
  estimated absolute RMS force accuracy = 0.0031742305
  estimated relative force accuracy = 9.559101e-06
  using double precision FFTW3
  3d grid and FFT values/proc = 7920 1800
Last active /omp style is kspace_style pppm/tip4p/omp
Total wall time: 0:09:16
