LAMMPS data file via write_data, version 30 Jul 2021, timestep = 25750000

864 atoms
2 atom types
576 bonds
1 bond types
288 angles
1 angle types

0.5921716256155136 17.615400774385655 xlo xhi
1.7890312255283263 21.840146574475384 ylo yhi
0.7224480000984688 21.49074779989222 zlo zhi

Masses

1 1.00794
2 15.9994

Pair Coeffs # lj/cut/tip4p/long/omp

1 0 0
2 0.21084 3.1668

Bond Coeffs # harmonic/omp

1 450 0.9572

Angle Coeffs # harmonic/omp

1 55 104.52

Atoms # full

39 1 1 0.5897 6.212170843707094 1.8175893077890102 4.602762361339783 -9 -3 -5
836 1 1 0.5897 7.332528343429243 5.389714679737114 3.3728465864268875 -1 1 -6
175 1 2 -1.1794 7.8017124742283634 3.5687416581497176 0.8231556254455752 -4 -5 6
356 1 1 0.5897 0.9963670661709834 5.155545779207983 5.015840857602515 8 2 1
177 1 1 0.5897 7.36349346502596 4.25081908309373 1.3320915356528409 -4 -5 6
188 1 1 0.5897 5.2861802930386785 4.8344931666548705 3.373841903437259 1 0 8
355 1 2 -1.1794 0.9067003466869562 4.226337715779978 5.227541679359159 8 2 1
189 1 1 0.5897 4.7963406160349065 4.781474406032411 4.805399866041035 1 0 8
37 1 2 -1.1794 6.720505409544887 1.830964519373717 5.413747684140272 -9 -3 -5
837 1 1 0.5897 6.614952139941124 6.395031984968064 2.4973823254399403 -1 1 -6
67 1 2 -1.1794 5.70279456976612 1.9510543034425654 0.8520137932353611 9 -5 5
835 1 2 -1.1794 6.6997219095522516 5.455127426737632 2.657614798521144 -1 1 -6
214 1 2 -1.1794 2.5029240251128604 3.0171371560838263 3.303656404171817 1 -4 6
851 1 1 0.5897 2.06135374613941 3.4701991532995993 1.4663734729887676 -10 0 -6
176 1 1 0.5897 8.279205798310574 3.0535230106050673 1.4734059587859893 -4 -5 6
187 1 2 -1.1794 4.576892056469968 4.494030614280973 3.9190991654375646 1 0 8
181 1 2 -1.1794 8.52547235042363 4.981283670250686 4.951135548918119 -6 0 -3
216 1 1 0.5897 3.2785003626938813 3.555429394611185 3.4617968030015365 1 -4 6
215 1 1 0.5897 1.8249220078375168 3.4046284363794346 3.857240584965243 1 -4 6
148 1 2 -1.1794 3.1307795322734058 6.514341598139797 2.6604093468343226 -3 5 3
845 1 1 0.5897 8.6753211274309 2.886071675107127 3.8692703707836547 -8 -4 7
149 1 1 0.5897 3.332844860808972 5.770066995126985 3.227420163726151 -3 5 3
844 1 2 -1.1794 9.09974723652347 2.5914190400430033 3.0634673981399545 -8 -4 7
150 1 1 0.5897 3.224054313835444 6.17120940043684 1.7716365127017883 -3 5 3
752 1 1 0.5897 4.259381048319734 2.0674721810973153 3.578792147672682 2 -6 2
183 1 1 0.5897 7.891184919637519 4.685148837420719 5.60402368815844 -6 0 -3
834 1 1 0.5897 1.5754611272850876 6.789958121562243 3.369595491359469 8 -6 -2
69 1 1 0.5897 6.481659210816299 2.50418171201697 0.9128175684128053 9 -5 5
346 1 2 -1.1794 2.7261390707645683 2.753271910514518 9.787268518789858 -3 0 -4
284 1 1 0.5897 5.405993241200704 4.721926181731877 9.699580147327847 12 -3 -1
546 1 1 0.5897 7.916290987242175 4.026124769173524 7.871156139458855 -5 8 5
747 1 1 0.5897 8.584279338500423 1.9201703418964124 6.4673876516195685 0 6 -7
348 1 1 0.5897 3.282830753189009 3.3347212870501206 9.269302451230555 -3 0 -4
730 1 2 -1.1794 0.7755055313225135 5.245301504980532 8.436968853248825 0 -5 -9
652 1 2 -1.1794 1.2165383261414164 4.753987208654406 11.081150627208588 -6 0 3
544 1 2 -1.1794 7.23617738373938 4.67505412804462 7.690499888119251 -5 8 5
254 1 1 0.5897 5.502622670087899 5.014914514747915 7.110722870871771 1 4 -6
75 1 1 0.5897 2.2243878360103704 3.5498842466374922 6.085319660561817 3 -2 2
293 1 1 0.5897 5.801361110699844 2.4111520811798663 8.655501357751803 1 -2 -4
294 1 1 0.5897 6.127253776591688 2.053715822929875 7.22090332213342 1 -2 -4
732 1 1 0.5897 0.9370209882847522 5.07773775781685 9.365481312603714 0 -5 -9
255 1 1 0.5897 4.165306014721743 4.385025442090162 6.7838690474741945 1 4 -6
285 1 1 0.5897 4.893231894467892 3.8264655941420584 10.807387079326123 12 -3 -1
207 1 1 0.5897 1.694418026678171 6.289792732703785 7.043834026804694 -6 7 -4
101 1 1 0.5897 7.00737987801595 3.9850178390777966 10.934973590622574 4 -2 -1
91 1 2 -1.1794 5.110083071622577 6.640835448114148 9.655547648966829 1 -6 -4
545 1 1 0.5897 7.628291167365557 5.510638194357866 7.94425428594091 -5 8 5
283 1 2 -1.1794 5.385020524309729 3.8089057055309063 9.986339799430988 12 -3 -1
253 1 2 -1.1794 4.710295024094887 5.147784347939746 6.590299320635983 1 4 -6
73 1 2 -1.1794 2.919644869695373 3.2221431700488536 6.655832494095888 3 -2 2
74 1 1 0.5897 2.9880848222263015 2.2919159852021735 6.440703216610744 3 -2 2
347 1 1 0.5897 2.2536496411010685 3.3382227535242337 10.379608165682717 -3 0 -4
206 1 1 0.5897 3.123250328648033 6.1617258661905545 6.559984379156568 -6 7 -4
745 1 2 -1.1794 8.86787676666347 2.3416505496851565 7.2786847587883665 0 6 -7
731 1 1 0.5897 0.6732257507628816 4.37560236437439 8.05039313285847 0 -5 -9
205 1 2 -1.1794 2.377902214460467 6.7622998836699635 6.568572468315728 -6 7 -4
93 1 1 0.5897 4.3950836013272685 6.727289264357132 10.286139575284281 1 -6 -4
59 1 1 0.5897 7.416152769826881 2.6606616648617987 13.981591361953614 9 5 0
607 1 2 -1.1794 6.366516670630934 4.451041438590279 14.004124669422165 6 -3 6
100 1 2 -1.1794 7.858368783998466 4.099518035408243 11.358095719629981 4 -2 -1
609 1 1 0.5897 5.648128171192988 4.093195991922002 13.482449414713408 6 -3 6
608 1 1 0.5897 5.981544574680215 4.609213059667461 14.866129635172804 6 -3 6
737 1 1 0.5897 7.957900218648652 6.628099332571689 15.246585294432183 1 3 -3
393 1 1 0.5897 3.5109630877686557 4.213832169694773 13.033905401576607 4 -8 -5
392 1 1 0.5897 3.9458378333192696 2.788206975219521 12.768370205252722 4 -8 -5
839 1 1 0.5897 1.755882478725226 4.866643698971448 14.422754811460697 0 -1 -1
782 1 1 0.5897 7.472399998809683 5.859934463672655 13.207960627130966 -11 2 -1
697 1 2 -1.1794 3.91276028635936 1.9276356564642456 16.169334056606438 -1 6 -2
653 1 1 0.5897 1.402266485972108 5.40931809677623 11.753728305228309 -6 0 3
738 1 1 0.5897 7.986679106304616 5.368743039300835 16.08637332291572 1 3 -3
736 1 2 -1.1794 8.393044308803116 6.231261342456577 16.00120623478322 1 3 -3
102 1 1 0.5897 7.799100768205008 3.581083676729184 12.160598257500327 4 -2 -1
838 1 2 -1.1794 2.0918699430149337 5.312422105578367 13.645147763864637 0 -1 -1
391 1 2 -1.1794 4.223225817697395 3.6975155430063813 12.656565988332826 4 -8 -5
58 1 2 -1.1794 7.981517141293301 2.2084199410047365 13.355352944559941 9 5 0
840 1 1 0.5897 2.745764547251807 5.924394222789454 13.98308452149307 0 -1 -1
817 1 2 -1.1794 0.9195830457353487 4.515494219914565 15.962764941909633 0 -3 1
783 1 1 0.5897 8.688308487668017 6.730887765377995 12.973411291764315 -11 2 -1
781 1 2 -1.1794 7.7490809368787374 6.7746423860854375 13.15289402066533 -11 2 -1
522 1 1 0.5897 3.9302734410026696 6.7133126438367805 15.74527646090062 -4 -6 -4
398 1 1 0.5897 4.910286703890537 3.746527712298617 16.195138771238952 7 1 -5
112 1 2 -1.1794 4.0052221938046 2.3874246080175 19.556727789085166 -3 2 2
230 1 1 0.5897 1.1180188020779342 2.5314266863762143 19.73145149433961 1 -1 2
850 1 2 -1.1794 1.8038906912584576 3.672069308367184 21.335098060279236 -10 0 -7
114 1 1 0.5897 4.757953308130694 2.292002991366176 18.97313721687413 -3 2 2
451 1 2 -1.1794 6.380472609838159 4.7182018814284525 18.811064550749535 -3 1 2
397 1 2 -1.1794 5.195213426648973 4.642169003510464 16.376602635273386 7 1 -5
68 1 1 0.5897 5.173809666108503 2.3561481569015927 20.933037278763393 9 -5 4
278 1 1 0.5897 7.780649316947493 2.9349569852089044 16.52651011996297 2 -2 2
452 1 1 0.5897 6.683834886233226 5.513573617877585 19.24882559301531 -3 1 2
458 1 1 0.5897 3.375549480515782 4.787957427795373 20.94690481899343 -4 2 -1
399 1 1 0.5897 5.714059430781917 4.57126091436966 17.17788813037813 7 1 -5
313 1 2 -1.1794 2.905576589136701 4.567644860977573 18.350370869387795 0 -5 -2
459 1 1 0.5897 3.8625299952961387 6.025485464079322 20.223456933292695 -4 2 -1
453 1 1 0.5897 6.590939289260265 4.012514525558529 19.422619790010025 -3 1 2
818 1 1 0.5897 1.5457594810145427 4.370644266846307 16.672127634567346 0 -3 1
314 1 1 0.5897 3.034239259050249 3.769666178016475 18.863184160900786 0 -5 -2
62 1 1 0.5897 2.1193537420793875 6.254602234751526 18.4684188809036 0 3 3
315 1 1 0.5897 3.7191167860697867 4.669175146580123 17.856279500573372 0 -5 -2
457 1 2 -1.1794 3.862949072024936 5.600776474442377 21.08130905817613 -4 2 -1
277 1 2 -1.1794 8.356479714075988 3.6807611768311963 16.695242962799682 2 -2 2
639 1 1 0.5897 8.9666320019969 4.190880990710054 20.037463303986605 -8 -9 3
638 1 1 0.5897 8.96834142646759 4.115028671757201 18.525368994479322 -8 -9 3
852 1 1 0.5897 0.9607160249478375 4.117046336026085 21.420898032358448 -10 0 -7
769 1 2 -1.1794 5.132054460412649 8.303834608281695 4.166169637131203 6 0 1
192 1 1 0.5897 8.67813632342371 11.510955051735893 4.119223287781536 3 2 -6
771 1 1 0.5897 4.901569577090076 8.200884425374035 5.089514038267917 6 0 1
299 1 1 0.5897 2.3598368553685316 9.189492609673088 4.237568837388473 -3 0 -2
45 1 1 0.5897 2.1603137092005147 10.70717609815121 1.928561256853479 -3 7 0
696 1 1 0.5897 7.850626371117102 9.616704333540833 5.583621385022847 0 -4 -3
44 1 1 0.5897 3.4868088507027353 10.211434917437012 2.464012979254662 -3 7 0
29 1 1 0.5897 5.930000034923821 11.369416348927746 1.2279487930619508 -5 3 6
27 1 1 0.5897 7.943673384998859 6.9434668824833645 5.215975945129775 -1 7 12
43 1 2 -1.1794 2.6307670896291366 9.907055410238153 2.1626246606660944 -3 7 0
694 1 2 -1.1794 8.312413194693892 10.450270380640939 5.492821713133633 0 -4 -3
382 1 2 -1.1794 1.127413759527848 7.838411982676241 0.8188363844949754 -6 -1 -6
25 1 2 -1.1794 7.616979375868232 7.84157654157288 5.161622373493052 -1 7 12
722 1 1 0.5897 6.128940147454209 8.524865486699863 1.529583366109639 6 -1 -2
383 1 1 0.5897 1.9533435304506293 8.168146295896449 1.1729499790768532 -6 -1 -6
515 1 1 0.5897 5.0173174199366635 10.416002513990177 3.6423270596924446 -5 -3 4
306 1 1 0.5897 8.238203188461789 9.478229184539252 1.5862012809743598 10 -4 -10
298 1 2 -1.1794 2.4250263611719616 9.41642235842038 5.16521605908871 -3 0 -2
514 1 2 -1.1794 4.945409685529592 11.046221953790448 2.9254381014282904 -5 -3 4
770 1 1 0.5897 4.5098314372300905 7.745593517588912 3.699806363533198 6 0 1
721 1 2 -1.1794 6.965137634028615 8.079485077275553 1.6662810131586951 6 -1 -2
300 1 1 0.5897 2.487613984651222 8.573586725459124 5.614644906518658 -3 0 -2
26 1 1 0.5897 6.864358567094221 7.78796018168735 4.57256913999441 -1 7 12
428 1 1 0.5897 0.7064538454746582 9.671418730411514 4.907927402898506 1 0 -2
832 1 2 -1.1794 0.7717572591025117 6.948220730452108 3.864866732667471 8 -6 -2
723 1 1 0.5897 7.217048369135059 7.7696336430275394 0.7963295400537899 6 -1 -2
89 1 1 0.5897 8.45599335712026 7.527276367492015 8.994458804386575 0 -6 -2
319 1 2 -1.1794 7.289460547006718 8.290376232900599 10.757262516040333 5 1 3
695 1 1 0.5897 7.976946815318593 10.989705476779013 6.20890020155909 0 -4 -3
92 1 1 0.5897 5.808404263643802 7.193031833612924 10.007280903869496 1 -6 -4
472 1 2 -1.1794 4.753353675616833 11.47435487425986 6.414534135074027 3 -2 -4
810 1 1 0.5897 0.6863413562279206 9.798496267831178 7.246169571262124 1 -6 1
860 1 1 0.5897 6.924907217591733 9.324752499135787 9.356808337023795 -3 0 7
308 1 1 0.5897 5.611048157352138 8.551759745730822 7.632470901904047 3 1 -3
307 1 2 -1.1794 4.9586243873120335 8.045637232611746 7.148202227195707 3 1 -3
23 1 1 0.5897 3.363478303706926 8.860096701763949 9.942458518176315 -6 -1 0
24 1 1 0.5897 3.6984639432471385 8.534730652271874 8.502338327408204 -6 -1 0
809 1 1 0.5897 1.4532170018524218 9.037048602689584 8.306412175498773 1 -6 1
859 1 2 -1.1794 6.433951008729378 9.773905694205034 8.668695366210903 -3 0 7
476 1 1 0.5897 2.8627925016996834 10.977489145305274 8.523550979612732 6 -4 -5
22 1 2 -1.1794 3.143577341001048 9.09813123516096 9.041755920718805 -6 -1 0
309 1 1 0.5897 4.971004755800719 7.181661795698608 7.560111950160646 3 1 -3
861 1 1 0.5897 5.633199338413375 10.071610017986973 9.100487803628818 -3 0 7
140 1 1 0.5897 4.865471116139039 11.259840067033215 10.74330331673039 -4 6 -1
88 1 2 -1.1794 8.617532622739185 6.833464800602283 8.355080184452923 0 -6 -2
474 1 1 0.5897 4.1969832894946375 11.757922075908532 7.140032376969132 3 -2 -4
473 1 1 0.5897 4.498142013507331 10.565244526954373 6.257500169091493 3 -2 -4
680 1 1 0.5897 7.212317458363913 9.905048734703806 15.46893086324659 1 -5 -6
679 1 2 -1.1794 8.143378422660515 9.700288434882534 15.555439128092566 1 -5 -6
779 1 1 0.5897 8.320039559133049 10.439048836483458 12.351195845877145 -3 2 4
778 1 2 -1.1794 7.459700485987094 10.667354190848696 11.999097798214086 -3 2 4
426 1 1 0.5897 3.0828487787725662 10.291850538374053 12.537736154323182 17 2 2
425 1 1 0.5897 1.6255010299510588 10.616641952973184 12.287391240427699 17 3 2
788 1 1 0.5897 3.9952632580718683 8.114002805816742 12.136870783437395 5 0 3
424 1 2 -1.1794 2.2260482664026693 10.304651711467304 12.964363139482664 17 3 2
4 1 2 -1.1794 5.341172465770095 8.410419712666375 13.580747731055938 1 2 -1
141 1 1 0.5897 5.55450748402727 10.30126365472804 11.691123508170616 -4 6 -1
787 1 2 -1.1794 3.446548224793985 7.660656962859009 11.496809018190952 5 0 3
5 1 1 0.5897 5.639049403089698 9.25140447978016 13.927581450589885 1 2 -1
521 1 1 0.5897 4.221375377888543 7.736715578755132 14.668267167435154 -4 -6 -4
520 1 2 -1.1794 3.501249019044166 7.318989387519502 15.140807223556981 -4 -6 -4
139 1 2 -1.1794 4.700114684669371 10.508028188152418 11.312259680402581 -4 6 -1
6 1 1 0.5897 6.1469468132017395 7.925765178512051 13.401520798537724 1 2 -1
740 1 1 0.5897 0.640779473711266 8.018876908780566 12.94137687761023 1 3 3
780 1 1 0.5897 7.363819043329689 11.601162368142386 12.186412031190333 -3 2 4
264 1 1 0.5897 5.722612602570309 11.664618311312054 14.998173953792449 1 2 1
768 1 1 0.5897 0.9821979671172835 11.443164288914424 15.151373944226348 -2 1 9
262 1 2 -1.1794 5.63148739837611 10.71480377007745 15.074511106659513 1 2 1
789 1 1 0.5897 2.5954438221481815 7.576950756461559 11.926812058753464 5 0 3
681 1 1 0.5897 8.562031038075405 10.547166883325636 15.70978209843446 1 -5 -6
766 1 2 -1.1794 1.0291733352932586 10.787882385074106 15.847573494646829 -2 1 9
263 1 1 0.5897 4.831345496537803 10.590740588181708 15.58506189619895 1 2 1
739 1 2 -1.1794 0.6941774053820415 7.607685987735474 12.078601564482813 1 3 3
66 1 1 0.5897 0.6354623986384844 9.354040642910459 14.773368340891613 0 4 -1
612 1 1 0.5897 2.648986607128237 10.176625316857447 16.20308127897283 6 -2 -4
611 1 1 0.5897 3.5516575092432605 8.99170869241353 15.932598335250718 6 -2 -4
468 1 1 0.5897 2.8236671635194974 11.723833739540543 13.871934414667756 1 3 8
320 1 1 0.5897 7.463284590731171 7.660850058706648 11.457100545480818 5 1 3
321 1 1 0.5897 7.473791401316013 9.143387762722945 11.15054574974863 5 1 3
633 1 1 0.5897 4.473007707610311 8.134719337152944 19.77375393965945 12 11 3
132 1 1 0.5897 5.571251041859748 7.696789786145789 17.865575455220302 -3 2 -5
131 1 1 0.5897 6.37014008532069 7.105159802103612 16.723743873467377 -3 2 -5
130 1 2 -1.1794 5.948637982059983 7.914370140808442 17.013209790572695 -3 2 -5
198 1 1 0.5897 3.9279455523639353 9.621726783905038 20.97842708988231 -2 -2 -4
384 1 1 0.5897 1.3540049872780031 7.507649767465776 20.717914222254024 -6 -1 -7
257 1 1 0.5897 7.830707318091646 7.815293278698765 19.293012056353326 5 -2 4
328 1 2 -1.1794 2.942867889496897 10.586594927943734 19.517633996057207 2 5 -2
625 1 2 -1.1794 8.767154260798158 11.080498823966575 19.75792885983283 -2 -4 6
258 1 1 0.5897 8.580343312402642 7.02245753891818 20.34253044536004 5 -2 4
632 1 1 0.5897 3.394617011076188 7.55272902163631 18.884724868371016 12 11 3
256 1 2 -1.1794 7.708873877906873 7.145738550317176 19.966203910384557 5 -2 4
414 1 1 0.5897 6.324440805180221 9.459124335955407 17.8055602554171 3 3 4
412 1 2 -1.1794 6.375249148469004 10.22173051984128 18.381890603182818 3 3 4
196 1 2 -1.1794 4.81762430837796 9.271856099726012 21.026819612448755 -2 -2 -4
508 1 2 -1.1794 9.041485666426727 8.264368548437577 17.72689968607203 4 1 3
413 1 1 0.5897 6.073028201012042 10.951652806658418 17.84134356291213 3 3 4
330 1 1 0.5897 3.164478020692674 10.235322612840783 18.655203648516107 2 5 -2
329 1 1 0.5897 2.045240345269452 10.29268664199957 19.673060156916925 2 5 -2
626 1 1 0.5897 7.831236183724473 11.108860850168893 19.558956402896513 -2 -4 6
197 1 1 0.5897 5.3514436986598035 9.906584894071795 20.548854560834677 -2 -2 -4
610 1 2 -1.1794 3.522554342381775 9.832427459061376 16.38937569592093 6 -2 -4
63 1 1 0.5897 1.18474729011049 7.3767651177776585 18.069330638336353 0 3 3
509 1 1 0.5897 8.781202279332437 8.993559321929947 17.16400919846601 4 1 3
61 1 2 -1.1794 1.6626026605942823 7.019770017519108 18.81798735848706 0 3 3
631 1 2 -1.1794 4.331482581585547 7.497872351540991 19.07327025906202 12 11 3
510 1 1 0.5897 8.61983362620911 7.498264289820591 17.337546778291305 4 1 3
305 1 1 0.5897 9.05440937080239 9.978134497105506 21.181482103046736 10 -4 -11
362 1 1 0.5897 8.592520132733698 13.143148045748752 2.1479676636425227 1 -1 2
144 1 1 0.5897 8.199336512965854 16.74492522769972 1.9963621838364964 6 1 8
614 1 1 0.5897 6.285013880454104 13.961716291558592 3.723589447407004 -11 2 6
523 1 2 -1.1794 1.590783944845368 12.369218758857453 1.5249918618105363 -1 2 5
765 1 1 0.5897 1.019339671376172 12.453598450573923 3.1038995177143938 -10 -2 -4
142 1 2 -1.1794 8.567951079036156 16.630890131949922 1.120343452476762 6 1 8
469 1 2 -1.1794 2.443825914846303 15.274547113691257 1.0438680047151112 3 1 4
615 1 1 0.5897 4.9257762438519705 14.50680679197462 3.3397218032682594 -11 2 7
793 1 2 -1.1794 3.2741648370209915 15.415930898890997 3.712147298637503 -3 2 4
525 1 1 0.5897 0.8034159651462061 12.220238221362704 1.0013824362327477 -1 2 5
109 1 2 -1.1794 7.4358609478348665 14.172947118958316 4.98489008399876 -5 3 -15
848 1 1 0.5897 2.0742094605909447 12.780235769756793 5.130047092807945 5 4 0
791 1 1 0.5897 5.484812961751895 14.818090040064064 1.5791783194296052 1 0 4
795 1 1 0.5897 3.221153236316378 14.53342975661458 4.07911208112899 -3 2 4
361 1 2 -1.1794 8.572782490165281 13.587878345914742 1.3005601176557386 1 -1 2
363 1 1 0.5897 8.383873043323579 14.501794811907896 1.5135018415383872 1 -1 2
792 1 1 0.5897 5.016633619635078 16.229946401198085 1.2972431737356855 1 0 4
794 1 1 0.5897 2.950525237026562 15.323074464022815 2.816088711492485 -3 2 4
111 1 1 0.5897 8.29990068044706 14.474338064916015 4.704014935162763 -5 3 -15
847 1 2 -1.1794 2.915137180935592 13.218037353335625 5.262134845887587 5 4 0
613 1 2 -1.1794 5.566011051709062 13.835207808977835 3.1044369238621607 -11 2 7
849 1 1 0.5897 3.5473995465220804 12.503879171555912 5.343066503641722 5 4 0
110 1 1 0.5897 7.124666750858189 14.856226579088561 5.578670129239765 -5 3 -15
516 1 1 0.5897 5.129972708215467 11.893362868382225 3.3312086557101255 -5 -3 4
524 1 1 0.5897 2.003221687871333 13.13515340504362 1.1255967361693024 -1 2 5
725 1 1 0.5897 2.1355628003052214 15.914790849058102 5.062268020931892 8 -4 1
724 1 2 -1.1794 1.5852887603838153 16.38546119419934 5.688326941000649 8 -4 1
790 1 2 -1.1794 5.2690223607955415 15.415182480501716 0.8628010896152727 1 0 4
30 1 1 0.5897 7.156692802078169 12.227174407016566 1.0008724101227287 -5 3 6
763 1 2 -1.1794 0.7071353381543588 12.600630949447838 3.9967555014872285 -10 -2 -4
701 1 1 0.5897 4.065829956223712 14.249334585023673 6.2380021908168315 6 -1 0
371 1 1 0.5897 4.925533767345928 15.598003925635355 10.01724890793075 6 2 -6
668 1 1 0.5897 5.4097049894728135 13.278834318632834 9.574241180879682 -5 -5 -5
17 1 1 0.5897 7.36187083358406 13.159836920276277 6.443561127109398 -3 6 9
103 1 2 -1.1794 8.570692912913756 12.060352863575503 9.685922128838744 7 -3 2
48 1 1 0.5897 6.903768630612215 16.063599820553968 9.221723963040558 1 -6 1
16 1 2 -1.1794 7.221847994388721 12.446436075677966 7.06625669411379 -3 6 9
667 1 2 -1.1794 5.776924592042711 12.39854033072657 9.493578704293116 -5 -5 -4
370 1 2 -1.1794 5.539663094060789 15.112557798253183 9.466263609346903 6 2 -6
690 1 1 0.5897 1.4280686862550516 14.890299563692347 9.54729901912171 0 -1 6
688 1 2 -1.1794 1.0675715680122924 15.611795433352373 9.031760522745078 0 -1 6
372 1 1 0.5897 5.131461838581353 15.105664181699945 8.600464873814445 6 2 -6
234 1 1 0.5897 1.5446957749521788 13.05584999607315 10.957256099368974 -3 -1 1
233 1 1 0.5897 2.4636915046016172 13.271016589739174 9.773552214561215 -3 -1 1
700 1 2 -1.1794 4.784550220988883 14.555222857753474 6.7913136280335324 6 -1 0
669 1 1 0.5897 6.010128255265234 12.319619216016163 8.568551123977867 -5 -5 -4
18 1 1 0.5897 6.426125039856117 12.012190326740962 6.758770991752056 -3 6 9
702 1 1 0.5897 5.058379119796147 15.381858232561239 6.393784645558904 6 -1 0
232 1 2 -1.1794 2.2267231097439555 13.6393882737589 10.62468875429257 -3 -1 1
646 1 2 -1.1794 8.44260404099715 16.547938169164656 6.279681698870472 -11 -1 3
647 1 1 0.5897 8.12577117257145 16.596417085731147 7.181660673339661 -11 -1 3
477 1 1 0.5897 2.1397665734560336 12.06579610633475 7.758788995913961 6 -4 -5
104 1 1 0.5897 7.642796611887882 12.164000803751225 9.897075632058156 7 -3 2
46 1 2 -1.1794 7.587221654297858 16.686840158236514 8.975240309330442 1 -6 1
105 1 1 0.5897 8.58086557469679 11.825248361696993 8.758076084224092 7 -3 2
475 1 2 -1.1794 2.887062318306686 11.916243786213665 8.337984388205149 6 -4 -5
726 1 1 0.5897 0.9718044448954799 15.725795739383218 6.011990591006615 8 -4 1
689 1 1 0.5897 0.7209906527652556 15.193719272285543 8.243463750300421 0 -1 6
368 1 1 0.5897 6.246938068565777 13.441030346886532 12.819739111815014 3 12 -6
327 1 1 0.5897 2.2909217937628177 14.99001939759401 14.70817186910688 -2 2 -2
478 1 2 -1.1794 4.306484980252583 15.561355114337957 15.644904317863325 -3 8 -5
456 1 1 0.5897 3.9344545558916177 13.498348411183095 11.677959819062385 5 -1 2
82 1 2 -1.1794 8.307018967796049 15.505590332152567 12.011931623678858 -7 3 -3
467 1 1 0.5897 3.5414842039901226 13.029275649068767 13.602561732314577 1 3 8
455 1 1 0.5897 4.44168701409904 14.688590282993014 12.464120530286236 5 -1 2
374 1 1 0.5897 6.803252463224274 14.04749963882038 15.745369887777816 8 3 -1
36 1 1 0.5897 4.724990755185988 16.369749346536274 13.748066726680316 2 0 -3
466 1 2 -1.1794 3.0956452053699155 12.539112132111745 14.293388466043812 1 3 8
326 1 1 0.5897 1.3739239471936662 15.749477028895912 13.773098304756036 -2 2 -2
454 1 2 -1.1794 4.599776689785234 13.756195766826252 12.316031798817468 5 -1 2
369 1 1 0.5897 7.289779921620174 13.21652164018047 13.894025238929325 3 12 -7
84 1 1 0.5897 7.826421092616537 14.754778468584728 12.36065184758011 -7 3 -3
325 1 2 -1.1794 1.3720406269446315 15.220381556857031 14.570805254531557 -2 2 -2
373 1 2 -1.1794 6.027728115794662 13.615307672090198 15.387521214326911 8 3 -1
480 1 1 0.5897 4.879002409748646 14.835845109552492 15.395621617564972 -3 8 -5
375 1 1 0.5897 5.603052788451974 13.2167874811676 16.147223595160575 8 3 -1
367 1 2 -1.1794 7.171835672745354 13.228046113675083 12.944164692108963 3 12 -6
450 1 1 0.5897 2.3581891496363543 16.518247330324254 11.31906138654549 8 -2 -6
448 1 2 -1.1794 1.8805468389341404 16.674808377971267 12.133695186759862 8 -2 -6
35 1 1 0.5897 3.694882362250661 16.646769272017334 12.673730352829978 2 0 -3
34 1 2 -1.1794 4.6044949770646655 16.375978610143168 12.798450844018495 2 0 -3
479 1 1 0.5897 4.898577895396542 16.22121330899541 16.005859935791854 -3 8 -5
83 1 1 0.5897 8.615640100217943 15.215341692375448 11.153555939786798 -7 3 -3
178 1 2 -1.1794 2.821306061455482 13.51662087345655 17.032282125274357 -15 0 -6
507 1 1 0.5897 1.3279916132851013 15.524173738650488 18.384035447941457 8 0 -3
406 1 2 -1.1794 7.184067295510041 14.511725630096555 19.596706014423518 -13 1 0
344 1 1 0.5897 3.312209223297058 12.171189188324583 19.947860482265845 -4 -2 -1
343 1 2 -1.1794 3.6691408712907996 12.959532753688633 20.35700055748967 -4 -2 -1
579 1 1 0.5897 8.703404653157614 14.050407371821807 16.46577564631467 3 3 -3
408 1 1 0.5897 6.402481471197156 14.575512542540581 20.14566093891466 -13 1 0
671 1 1 0.5897 7.250586314710173 16.37290720326154 19.3377932205711 7 -6 -2
505 1 2 -1.1794 1.733917086256189 16.195795809069416 17.83590676166388 8 0 -3
345 1 1 0.5897 4.492760287533687 12.673122794066431 20.75183864281945 -4 -2 -1
674 1 1 0.5897 1.1186234434318156 13.135579046167319 17.331062270288683 -3 -4 -7
506 1 1 0.5897 2.4849078897682437 16.499952472354845 18.34562730636899 8 0 -3
180 1 1 0.5897 3.0988144974769103 14.405884193528637 16.812058070803737 -15 0 -6
431 1 1 0.5897 4.821658727280547 12.629158642091625 18.59620002797346 -13 1 -2
578 1 1 0.5897 7.927701859868298 14.69378022560984 17.59554189685307 3 3 -3
407 1 1 0.5897 7.8315956978343735 14.075903828886274 20.150826389270193 -13 1 0
577 1 2 -1.1794 8.134553201351846 14.79370921100052 16.666293951124565 3 3 -3
432 1 1 0.5897 6.18628560001228 13.283360474202818 18.639186426845015 -13 1 -2
430 1 2 -1.1794 5.533799329260371 12.932480735925918 18.033032412545637 -13 1 -2
471 1 1 0.5897 3.2317022065180634 14.981460925833353 21.354267156858867 3 1 3
470 1 1 0.5897 1.734453759714542 15.129675078051063 21.18599219443282 3 1 3
28 1 2 -1.1794 6.374802870005998 11.892935113844098 21.329611919567547 -5 3 5
179 1 1 0.5897 3.145891874150631 12.978238195325314 16.31042666275991 -15 0 -6
821 1 1 0.5897 1.6723836759055617 18.211371255038777 4.124233822403976 -1 2 7
38 1 1 0.5897 6.809023773928902 20.960450324061004 5.656733154705861 -9 -4 -5
224 1 1 0.5897 7.329900963157604 19.318103181177484 1.2921145592423149 3 -1 -5
560 1 1 0.5897 1.9570779366343576 21.386208854208267 2.7224102403057016 6 1 2
709 1 2 -1.1794 4.562184365400472 18.70264206711898 3.8457318579440725 3 2 2
332 1 1 0.5897 0.8403164924331392 18.118904387369223 1.6647806156932832 2 -8 -4
561 1 1 0.5897 1.7957494977963637 19.896774789784054 2.940569812242402 6 1 2
10 1 2 -1.1794 8.260732422090769 19.766624885353732 2.9090172777144483 -4 -5 2
331 1 2 -1.1794 1.2399228833199802 17.572893172164058 2.3418860942400874 2 -8 -4
711 1 1 0.5897 4.461267596201896 18.175360203882203 3.0531894668298594 3 2 2
753 1 1 0.5897 5.139501675315845 21.561517469198797 2.4801263670119087 2 -7 2
823 1 2 -1.1794 4.436218727586261 17.98487279844274 1.2146715759767481 0 6 5
379 1 2 -1.1794 7.328282329838184 17.16212610292689 3.4775429561993394 3 -5 -1
710 1 1 0.5897 4.805647727891817 19.571599636699382 3.5264599574992275 3 2 2
822 1 1 0.5897 2.9443578544436275 18.885575595314336 4.592828510978517 -1 2 7
820 1 2 -1.1794 1.9911952899724799 18.971944574043288 4.610266187009401 -1 2 7
858 1 1 0.5897 5.230879680883043 17.57865074216626 4.983444820738289 -4 0 -2
825 1 1 0.5897 5.317799236244675 18.32842283564898 1.0695393815922098 0 6 5
381 1 1 0.5897 7.567870975663317 18.088867022880894 3.47179556784808 3 -5 -1
559 1 2 -1.1794 1.58089459656505 20.59965229887469 2.327312985391085 6 1 2
751 1 2 -1.1794 4.895767499134076 21.427298223649874 3.3960165643149316 2 -7 2
12 1 1 0.5897 8.560343250133844 20.675278429882823 2.9385270996148782 -4 -5 2
333 1 1 0.5897 1.6783789208961957 16.872960657748727 1.857981113760617 2 -8 -4
380 1 1 0.5897 7.125157045727961 16.972427164139766 4.393551359089079 3 -5 -1
856 1 2 -1.1794 5.525134279118013 16.981594678006388 5.671362511768889 -4 0 -2
11 1 1 0.5897 9.05662754990671 19.24760807392762 3.025019122771782 -4 -5 2
143 1 1 0.5897 8.909897213862529 17.494652837917965 0.8895506021633263 6 1 8
735 1 1 0.5897 0.7282723187863454 20.648410362878206 5.573973911152542 0 3 0
824 1 1 0.5897 3.856876373454103 18.634677763447662 0.8166176956502724 0 6 5
301 1 2 -1.1794 3.41494432384502 17.68698446116389 7.3259475779931424 1 5 4
623 1 1 0.5897 5.996561791173643 20.13259941444429 8.522039510624719 4 2 5
302 1 1 0.5897 4.160898576339721 17.48690895091788 6.760424507110631 1 5 4
542 1 1 0.5897 8.109204243346419 19.343195417725752 6.008088663067 -18 8 2
555 1 1 0.5897 4.140087674284496 20.763287539644576 7.275039178519562 -4 -6 4
221 1 1 0.5897 1.5683172650731847 21.430889029580023 9.10323439529172 1 -5 3
636 1 1 0.5897 3.6187574923135166 18.320106964214126 10.309343970731865 -3 2 2
554 1 1 0.5897 3.531506452160457 19.53452137056965 6.633326809461458 -4 -6 4
568 1 2 -1.1794 8.877706142198264 21.133867719636047 10.074424570715486 5 5 2
15 1 1 0.5897 4.644755110190306 20.57341076717461 10.834362406637013 2 -5 -5
634 1 2 -1.1794 3.782731052333783 17.412120140333656 10.054491008593859 -3 2 2
13 1 2 -1.1794 3.89176842030127 20.166215736724997 10.406012322328785 2 -5 -5
728 1 1 0.5897 1.1254512149909384 19.9326018738754 10.54176632816011 -6 -3 4
220 1 2 -1.1794 1.222485062055994 20.66140328298122 8.650935179108151 1 -5 3
622 1 2 -1.1794 6.099182597374083 19.186066187464295 8.422926780838836 4 2 5
624 1 1 0.5897 5.27447682070926 18.82042815225496 8.74301087063899 4 2 5
513 1 1 0.5897 8.997624581616268 17.67802214569077 9.716769873771039 4 1 3
222 1 1 0.5897 1.8591558554519625 20.483676940737976 7.958591927324459 1 -5 3
543 1 1 0.5897 6.883459523916689 19.107177312062998 6.864741259072582 -18 8 2
553 1 2 -1.1794 3.3608392044620525 20.4598370524446 6.809225102365207 -4 -6 4
635 1 1 0.5897 3.4603164622326514 17.35331823465995 9.155116519510537 -3 2 2
47 1 1 0.5897 7.129356529813578 17.52288756541596 8.88760898463818 1 -6 1
303 1 1 0.5897 2.6650544905725373 17.288822376399786 6.883897427162119 1 5 4
14 1 1 0.5897 3.4056835302582673 20.89892947923247 10.027616614899163 2 -5 -5
648 1 1 0.5897 8.802752926230042 17.417405932681636 6.104770117063194 -11 -1 3
569 1 1 0.5897 8.87571483081121 21.600939019937577 9.238890420009353 5 5 2
292 1 2 -1.1794 5.717977195886975 21.7572888985979 8.013358377054427 1 -3 -4
803 1 1 0.5897 6.8887803640688725 21.35306408375991 11.079529764328473 7 1 -3
541 1 2 -1.1794 7.1643964864629215 19.199238675575774 5.954315072514759 -18 8 2
857 1 1 0.5897 6.362228072663618 17.343891647758845 5.961698579616873 -4 0 -2
570 1 1 0.5897 8.906034208452578 20.208295382117818 9.831887474531554 5 5 2
121 1 2 -1.1794 4.771804526504186 19.72577317203985 14.740667922005843 4 -3 0
244 1 2 -1.1794 2.9305863231030895 18.163728901623173 15.937980468285275 -7 4 2