LAMMPS data file via write_data, version 30 Jul 2021, timestep = 26250000

972 atoms
2 atom types
648 bonds
1 bond types
324 angles
1 angle types

0.03732456115830374 19.96267643881775 xlo xhi
-0.00901593982055715 20.009016939816284 ylo yhi
-0.052306725374327456 20.75230472536675 zlo zhi

Masses

1 1.008
2 15.999

Pair Coeffs # lj/cut/tip4p/long/omp

1 0 0
2 0.21084 3.1668

Bond Coeffs # harmonic/omp

1 450 0.9572

Angle Coeffs # harmonic/omp

1 55 104.52

Atoms # full

10 4 2 -1.1794 1.0217226078616186 4.254493681539868 3.808925070652162 0 0 0
11 4 1 0.5897 0.7345814590912657 3.4761677176432975 3.3313665096198406 0 0 0
12 4 1 0.5897 1.9609154784023384 4.123213409041596 3.9392556447995086 0 0 0
33 11 1 0.5897 1.5380573736747407 2.3171549884350147 1.3548107575224722 0 0 0
31 11 2 -1.1794 0.7987693959349769 2.22041836132135 1.955116554039201 0 0 0
18 6 1 0.5897 3.9118569373661085 2.9352931137524263 3.266810804434121 0 0 0
4 2 2 -1.1794 4.029361764538587 1.0413585559011347 3.0898480011945546 0 0 0
16 6 2 -1.1794 3.731164041305454 3.805702561230349 3.6218168034620066 0 0 0
23 8 1 0.5897 2.698749873768631 0.8084858631651521 4.3360102647556555 0 0 0
140 47 1 0.5897 1.1706044239177849 9.38046235201084 2.7328805548479664 0 0 0
19 7 2 -1.1794 0.7226160306698691 6.181692916513024 1.7061641178908 0 0 0
15 5 1 0.5897 4.246725612652226 6.465529453102505 2.21993867909622 0 0 0
17 6 1 0.5897 4.055505150778361 4.40950152689094 2.9535850140355304 0 0 0
236 79 1 0.5897 1.3671571447884834 0.3714025210102614 1.8751079097771919 0 1 0
6 2 1 0.5897 4.711080004819299 0.9960114212593616 3.7603145089151373 0 0 0
674 225 1 0.5897 1.7657982718061331 5.612392906014442 0.358189552444215 0 0 1
5 2 1 0.5897 4.230532987517436 0.31982629179484084 2.4938375486055437 0 0 0
110 37 1 0.5897 1.951339656548359 9.38284090337172 0.3411716918411248 0 0 0
20 7 1 0.5897 0.8015148165368986 5.57579774835677 2.4430492020426913 0 0 0
14 5 1 0.5897 3.8153063131614298 5.691544785451716 0.9923450147185349 0 0 0
114 38 1 0.5897 3.016873839440468 7.744254879856189 3.851779039328696 0 0 0
112 38 2 -1.1794 3.8312052425131347 7.923363373524658 3.3815632058919727 0 0 0
139 47 2 -1.1794 0.818313156883946 8.991410990649852 1.9323440345781406 0 0 0
141 47 1 0.5897 0.8441576235166985 8.048018871042295 2.092490281323679 0 0 0
13 5 2 -1.1794 4.396913952067117 5.644528695803147 1.7511997848706804 0 0 0
126 42 1 0.5897 4.1189323609813275 9.635812239979643 3.290534666849188 0 0 0
111 37 1 0.5897 3.441550258925636 9.351185643436272 0.07595304938074085 0 0 0
102 34 1 0.5897 0.3968690611467827 0.8555983757438255 5.098696280566577 1 0 0
3 1 1 0.5897 3.5873883934588515 2.351541615287687 0.3139605610013633 0 0 0
113 38 1 0.5897 4.519979613019892 7.776407215225823 4.029886553295122 0 0 0
9 3 1 0.5897 4.898808123401622 4.402297420786093 4.860315491480955 0 0 0
1 1 2 -1.1794 2.695689872075954 2.4944773753575835 -0.0033949484382631567 0 0 0
325 109 2 -1.1794 2.819967547444667 2.332837002323439 7.38495108901524 0 0 0
326 109 1 0.5897 2.612207125729933 1.8236039628864968 6.601460298247392 0 0 0
327 109 1 0.5897 3.7761865628069793 2.375298318179481 7.3970104125475205 0 0 0
355 119 2 -1.1794 0.8138290068767543 1.8633881341167222 9.236659995731177 0 0 0
356 119 1 0.5897 1.4384701423304662 1.969211449873976 8.519053188098995 0 0 0
27 9 1 0.5897 2.5244932987290936 4.033587243345042 6.769563946539421 0 0 0
443 148 1 0.5897 1.071238846053673 9.92123144564293 10.293714182711282 0 0 0
337 113 2 -1.1794 4.284178831907781 5.56796152811682 8.635813711266778 0 0 0
342 114 1 0.5897 4.1402493797074325 4.438972916399924 10.049519649496283 0 0 0
25 9 2 -1.1794 2.4947302398117976 4.9669340867892515 6.559147484572129 0 0 0
131 44 1 0.5897 1.908773781435377 6.6490486497599575 5.6198891687612305 0 0 0
344 115 1 0.5897 1.0024695292647747 5.717915415726926 9.102946958633645 0 0 0
435 145 1 0.5897 2.3485590098273224 8.618674135572457 6.550508794465149 0 0 0
433 145 2 -1.1794 2.6428720668531307 9.136083004937344 7.300173690870603 0 0 0
345 115 1 0.5897 0.5912200579378374 7.087682171120758 8.606255101404487 0 0 0
339 113 1 0.5897 3.907448391289549 5.3627331059186165 7.7800672503843735 0 0 0
468 156 1 0.5897 4.4657741916625495 9.034655938243517 7.302159302650343 0 0 0
437 146 1 0.5897 4.116189952340485 7.243409620312979 9.53161291808353 0 0 0
463 155 2 -1.1794 0.5107558203197577 8.871094583706045 8.898178329902802 0 0 0
329 110 1 0.5897 4.106023208080136 0.5889280935571436 9.78649769311557 0 0 0
26 9 1 0.5897 1.8674519839528982 5.333556559759431 7.18238633473706 0 0 0
464 155 1 0.5897 1.2352541275218547 9.120807855985946 8.324532249171941 0 0 0
343 115 2 -1.1794 0.6611225654864241 6.172932434078992 8.333025218221293 0 0 0
438 146 1 0.5897 4.008802251925149 8.724370687940167 9.827070127282914 0 0 0
561 187 1 0.5897 0.7046605608514154 0.031233403980564636 9.00502623016645 0 1 0
335 112 1 0.5897 1.0349388185804314 3.4630980899779753 10.077040632900474 0 0 0
436 146 2 -1.1794 4.055004944798547 7.868748573117722 10.253788735417487 0 0 0
22 8 2 -1.1794 2.22941448291098 0.7521816540288715 5.168408832887239 0 0 0
132 44 1 0.5897 0.7778423108796354 7.587802460321457 5.256820445438807 0 0 0
130 44 2 -1.1794 1.7311598569657838 7.505323551766802 5.230584276591734 0 0 0
649 217 2 -1.1794 2.8532490845300877 2.3884325924160326 13.917898607288002 0 0 0
650 217 1 0.5897 2.6414961957522816 1.6943711180574776 13.293587233408614 0 0 0
651 217 1 0.5897 2.342561038046254 2.1731949994116264 14.698414360908531 0 0 0
348 116 1 0.5897 2.7344952815023476 0.9011157382324609 11.283111646392022 0 0 0
346 116 2 -1.1794 2.245537076937309 0.46800625600730655 11.982873423925088 0 0 0
350 117 1 0.5897 2.6161520069808586 4.316985894161234 13.48585983092659 0 0 0
347 116 1 0.5897 1.3283012183216318 0.6637998148004417 11.791429943805609 0 0 0
683 228 1 0.5897 4.479774659128599 2.348840319076599 14.308149223193436 0 0 0
340 114 2 -1.1794 3.9195491939554263 4.027493308566081 10.885173628098503 0 0 0
792 264 1 0.5897 4.1367908134328095 9.156951346839781 14.403441150266861 0 0 0
349 117 2 -1.1794 2.6217706333619866 5.2700444539404305 13.575039846323078 0 0 0
533 178 1 0.5897 0.2641450574404023 7.650019203167546 11.84545588438931 1 0 0
330 110 1 0.5897 4.96002948912709 1.1497684863295166 10.903760253556722 0 0 0
668 223 1 0.5897 1.3106329075231453 5.865086459854742 14.781640358468128 0 0 0
351 117 1 0.5897 3.362047885997229 5.452571839982172 14.1538273052087 0 0 0
456 152 1 0.5897 2.258158900774743 6.520268957345258 12.31649467370268 0 0 0
454 152 2 -1.1794 1.9299240302735723 7.321005824566986 11.907351728870836 0 0 0
757 253 2 -1.1794 2.381976325281572 9.14571839059857 14.052075949994578 0 0 0
759 253 1 0.5897 2.2017299983558374 8.588513546303417 13.294863183088133 0 0 0
455 152 1 0.5897 2.5715813661094495 7.522974896436927 11.226318040816018 0 0 0
336 112 1 0.5897 2.12277899957079 4.205265462216058 10.82396740452575 0 0 0
334 112 2 -1.1794 1.234604087346184 4.307246367996682 10.481837183913889 0 0 0
789 263 1 0.5897 1.1193696695626654 8.934800129875777 15.282185717067748 0 0 0
661 221 2 -1.1794 4.6042508528808295 5.640085385087482 15.34045654494626 0 0 0
680 227 1 0.5897 0.11363564435573181 2.244788430232067 15.439222956628997 0 0 0
667 223 2 -1.1794 0.6242481441341342 5.9703855032054785 15.440505013574278 0 0 0
328 110 2 -1.1794 4.201356820395966 1.3522119791783442 10.356261373527458 0 0 0
341 114 1 0.5897 4.105144210863843 3.0979953192592773 10.751408332688571 0 0 0
653 218 1 0.5897 3.4005816827590687 0.9664855914546305 17.239104121532414 0 0 0
652 218 2 -1.1794 4.331421660121423 1.0935960232119941 17.055578952023616 0 0 0
664 222 2 -1.1794 4.180088057496665 3.9339779074086305 17.459533262234274 0 0 0
671 224 1 0.5897 2.1460374599932917 1.5136745145585133 19.40837537007439 0 0 0
666 222 1 0.5897 4.36557902594458 3.015463239571586 17.264001061502874 0 0 0
670 224 2 -1.1794 2.0209495140999403 0.9191343593434528 18.668637885437924 0 0 0
665 222 1 0.5897 3.24704231973618 3.950283658233569 17.672738052374932 0 0 0
681 227 1 0.5897 1.0424494227079764 2.72740777492172 16.533080148782446 0 0 0
672 224 1 0.5897 1.0757879616196644 0.920173124504175 18.517057366526892 0 0 0
658 220 2 -1.1794 1.2971882240464638 4.1250227423542185 17.470657113522364 0 0 0
659 220 1 0.5897 0.6767235978854681 4.342260551260046 18.166475164001433 0 0 0
654 218 1 0.5897 4.531594127498279 0.4515618004033064 16.37436751477353 0 0 0
663 221 1 0.5897 4.376877257546025 6.464019828719487 15.771434550574421 0 0 0
679 227 2 -1.1794 0.9077784878330967 2.00664621922995 15.917700132564807 0 0 0
660 220 1 0.5897 1.1708676005085417 4.809961113901262 16.813973648334127 0 0 0
787 263 2 -1.1794 0.4267692155556739 8.616950450381268 15.861495260185217 0 0 0
662 221 1 0.5897 4.397950304892623 4.9657544908428175 15.987786108854072 0 0 0
788 263 1 0.5897 0.5040808193510125 9.157994520687788 16.64739022354066 0 0 0
761 254 1 0.5897 4.234057469151865 8.729475760092072 17.074117462096567 0 0 0
778 260 2 -1.1794 2.044065190811287 7.524688630192742 18.898072046671572 0 0 0
675 225 1 0.5897 2.291045402798771 6.0009161400823015 19.797026696319996 0 0 0
779 260 1 0.5897 2.180538074652498 8.31120231645772 19.426362150933343 0 0 0
760 254 2 -1.1794 4.201866573924535 7.782790942366464 17.212155541899307 0 0 0
780 260 1 0.5897 2.7179819841439996 7.571199097291813 18.2198370102048 0 0 0
884 295 1 0.5897 0.6127166291292179 0.18679911655079506 15.937683261307951 0 1 0
858 286 1 0.5897 0.3423811163962021 7.421400800914828 18.851475378944322 1 0 0
669 223 1 0.5897 0.674606801223041 6.891933382586368 15.694417603860632 0 0 0
2 1 1 0.5897 2.6247360465281546 3.4441446491818297 20.704320656447557 0 0 -1
673 225 2 -1.1794 2.3654025200798174 5.327401572901989 20.47317552873095 0 0 0
762 254 1 0.5897 4.867523693106667 7.614744538442847 17.879227943680597 0 0 0
656 219 1 0.5897 4.999796143652604 4.456899989152843 18.98819002002746 0 0 0
109 37 2 -1.1794 2.610636966756743 9.634650033899552 20.499065905914794 0 0 -1
120 40 1 0.5897 1.462847068865645 11.681426608049652 3.1317958337057825 0 0 0
129 43 1 0.5897 0.980434702142562 13.745895402012813 2.1436403774978787 0 0 0
118 40 2 -1.1794 1.676764616146879 10.961452586716412 3.725255736064679 0 0 0
119 40 1 0.5897 2.61824830611674 10.829724329824156 3.6131903352974013 0 0 0
240 80 1 0.5897 2.4859262802308826 13.819880902728414 4.2179400310051465 0 0 0
127 43 2 -1.1794 0.86106110490063 12.824710632946015 1.9124336403237678 0 0 0
123 41 1 0.5897 4.370533623736741 12.449111172761214 0.6952758790200184 0 0 0
222 74 1 0.5897 4.2284130545234655 13.824765599486183 2.377738788925726 0 0 0
124 42 2 -1.1794 4.341353000176304 10.565827941432005 3.2468769828248405 0 0 0
219 73 1 0.5897 3.614043400156353 15.969294487215391 0.04433532390217265 0 0 0
220 74 2 -1.1794 3.975390106858297 14.288807294187569 3.175852555117905 0 0 0
121 41 2 -1.1794 4.999207812253986 12.456348318848963 1.4170955795168954 0 0 0
247 83 2 -1.1794 1.1112801581589353 15.650002214208579 2.1524227343824793 0 0 0
890 297 1 0.5897 2.262737352360741 19.12168396140089 0.2740711453042013 0 0 1
783 261 1 0.5897 2.0441622067237266 12.50170570817913 0.45053219621868335 0 0 1
221 74 1 0.5897 3.949094644536101 15.210660084127547 2.9193583164054884 0 0 0
226 76 2 -1.1794 1.5056645105385118 17.722153870053187 3.958628149556869 0 0 0
233 78 1 0.5897 4.266480705898612 17.715639294831266 2.5929122783616068 0 0 0
227 76 1 0.5897 1.4203385694431312 18.42217304343036 3.311309435426399 0 0 0
234 78 1 0.5897 3.192016897638977 17.31322595134064 3.5807010721240506 0 0 0
235 79 2 -1.1794 1.306659657920213 19.438900025570717 1.7795612285437394 0 0 0
230 77 1 0.5897 4.163495609971794 19.005285504467665 0.5851885890010523 0 0 0
249 83 1 0.5897 1.7096857500575984 15.876460065237398 1.440412318305338 0 0 0
228 76 1 0.5897 0.8000040579722203 17.88643098104487 4.584233665588959 0 0 0
248 83 1 0.5897 1.2061081872055404 16.3647093939762 2.782125430931815 0 0 0
232 78 2 -1.1794 4.066360464390938 17.07319399995244 3.2737551035934347 0 0 0
122 41 1 0.5897 4.681020408239477 11.783700821909433 2.0192800147764265 0 0 0
229 77 2 -1.1794 4.698530775622328 18.97077170035737 1.3782061932960192 0 0 0
125 42 1 0.5897 4.796829889001978 10.74256178190327 4.0700705019505365 0 0 0
188 63 1 0.5897 0.13030861771698923 10.968331776199614 4.710512396119554 1 0 0
237 79 1 0.5897 0.38450117824255514 19.275838479224046 1.5812122951503587 0 0 0
317 106 1 0.5897 0.09594858689620753 13.89093789905244 4.9635719464345485 1 0 0
238 80 2 -1.1794 1.8908229545383537 13.792367192789381 4.967225473990079 0 0 0
133 45 2 -1.1794 2.5043068594507893 11.80859292871028 6.781799970691646 0 0 0
134 45 1 0.5897 1.9214673373327267 12.070409136837066 7.494598313322378 0 0 0
135 45 1 0.5897 3.3734544722229334 12.091278076120155 7.066370788909599 0 0 0
453 151 1 0.5897 0.8725584368559658 11.809605932147841 9.52127148127761 0 0 0
451 151 2 -1.1794 0.7738193993749415 12.474655999064787 8.839882719912907 0 0 0
450 150 1 0.5897 4.09725461257051 11.389998450967518 9.353921499777323 0 0 0
446 149 1 0.5897 4.5567654164429445 13.361802396412065 8.78157638617632 0 0 0
239 80 1 0.5897 2.0448392737048557 12.935275707861031 5.364703366765541 0 0 0
573 191 1 0.5897 1.0109950917056656 14.346710181494602 9.483347722713965 0 0 0
445 149 2 -1.1794 4.658755211837472 12.613725532886766 8.193101028793578 0 0 0
543 181 1 0.5897 2.336428600487035 14.871363052295191 6.429984728812924 0 0 0
571 191 2 -1.1794 0.7508657772241868 15.228685236250593 9.217334745428102 0 0 0
241 81 2 -1.1794 2.484097255445353 18.438861015399063 6.923254830264377 0 0 0
542 181 1 0.5897 1.8566022094587242 15.395583177070366 7.766820673557969 0 0 0
558 186 1 0.5897 4.355114066296823 17.86482039393217 10.093606352299075 0 0 0
576 192 1 0.5897 4.273451867347283 15.632267953709551 7.241262785994844 0 0 0
541 181 2 -1.1794 2.5258166821791246 15.532197369352984 7.096137974812837 0 0 0
551 184 1 0.5897 1.276426393902935 18.065983178070535 10.134293945039394 0 0 0
559 187 2 -1.1794 0.5122328266869751 19.127259269629228 8.834229868026208 0 0 0
242 81 1 0.5897 2.3069055673949133 17.51454940277525 6.7484692310823124 0 0 0
572 191 1 0.5897 0.9732161989330199 15.78084010322389 9.966994058643285 0 0 0
243 81 1 0.5897 1.746580353059992 18.72708388481544 7.461129592857755 0 0 0
555 185 1 0.5897 3.9289675782155626 18.69372550854952 8.03833050170399 0 0 0
553 185 2 -1.1794 4.431030634179196 19.074012265602683 8.759192771767985 0 0 0
24 8 1 0.5897 2.4103106555070672 19.88571080020078 5.486584078368006 0 -1 0
434 145 1 0.5897 2.5863972625275102 10.043990572328147 7.00214798525313 0 0 0
544 182 2 -1.1794 4.37806838191311 14.62575947035832 10.117386078308053 0 0 0
448 150 2 -1.1794 3.9784253546638 10.767422212234981 10.071283964080136 0 0 0
457 153 2 -1.1794 2.3917331057743842 11.911724774376943 13.56011359032072 0 0 0
458 153 1 0.5897 1.7945114435844167 12.153843640231983 14.267930798434213 0 0 0
459 153 1 0.5897 3.261825371639091 12.127166258281564 13.896017215482319 0 0 0
562 188 2 -1.1794 2.218971854573811 13.915156229114283 11.643818102709524 0 0 0
563 188 1 0.5897 2.386408307708092 13.05223354893749 12.022812607305648 0 0 0
552 184 1 0.5897 2.360145738828145 17.342926818814302 10.905550101371354 0 0 0
545 182 1 0.5897 3.6036312838556834 14.264510475703894 10.548733632359072 0 0 0
564 188 1 0.5897 2.4569906238968637 14.531697622580655 12.336315645852967 0 0 0
449 150 1 0.5897 4.531881753101723 11.1045349464595 10.775815954823745 0 0 0
769 257 2 -1.1794 4.387283744435047 12.553718145785865 15.388095165376324 0 0 0
442 148 2 -1.1794 1.3486351086403625 10.634229255576747 10.869043466246868 0 0 0
444 148 1 0.5897 2.281943892742044 10.74151944032759 10.685391382245658 0 0 0
550 184 2 -1.1794 1.410565099328495 17.383192770789055 10.791659219005117 0 0 0
642 214 1 0.5897 0.3161245139161589 14.331729529601132 11.768731113978253 1 0 0
879 293 1 0.5897 4.144224489663004 18.952131525558336 14.684842932386205 0 0 0
865 289 2 -1.1794 2.7874579402115347 15.788062727599277 13.607085469463732 0 0 0
867 289 1 0.5897 2.3220128725765337 15.57846926042154 14.416877197919032 0 0 0
565 189 2 -1.1794 2.4969317523236687 18.60904376590723 13.86283030344395 0 0 0
567 189 1 0.5897 2.4605946754005226 19.18062146802672 13.095820395884216 0 0 0
866 289 1 0.5897 3.7108142065841427 15.806302044335537 13.858845311413983 0 0 0
566 189 1 0.5897 2.4499581953543075 17.722805974179465 13.504125412598624 0 0 0
885 295 1 0.5897 1.119659673539423 19.119955967356862 15.011312894860547 0 0 0
556 186 2 -1.1794 4.173165771546046 17.258023333475457 10.811236359077306 0 0 0
758 253 1 0.5897 2.3543577178411215 10.037659834074562 13.705680812536825 0 0 0
896 299 1 0.5897 0.28459684956136044 15.647656523786523 15.350975888688783 0 0 0
512 171 1 0.5897 0.040642440419798476 11.102543410020775 12.056275965968352 1 0 0
877 293 2 -1.1794 4.884106145970876 19.038095928049042 15.28609524217262 0 0 0
557 186 1 0.5897 4.260870738089819 16.389248734810714 10.419006120579759 0 0 0
768 256 1 0.5897 0.7747573578688511 11.330997755380022 17.009502401569513 0 0 0
888 296 1 0.5897 2.3379678379063678 13.458476261661874 19.337218837471212 0 0 0
766 256 2 -1.1794 1.0062313636365547 10.693958668367314 17.68547043683904 0 0 0
773 258 1 0.5897 3.06317890937377 10.67417736512299 17.456988113369007 0 0 0
886 296 2 -1.1794 2.1362922636430928 14.282108180371651 18.89306472744174 0 0 0
774 258 1 0.5897 4.083390729611333 11.31035570841712 16.53689479850329 0 0 0
772 258 2 -1.1794 3.9984990518182926 10.68134351774329 17.253457616382 0 0 0
869 290 1 0.5897 3.450527060448617 14.45072587181838 17.620773848280898 0 0 0
767 256 1 0.5897 0.46899571162452935 10.937927005671016 18.439257480800748 0 0 0
781 261 2 -1.1794 2.727723237192226 12.358854398437382 20.600424721648487 0 0 0
965 322 1 0.5897 0.35330391945542294 14.368835844741483 19.028036938637335 1 0 0
891 297 1 0.5897 2.576613146919715 19.52036099256766 19.65225264703934 0 0 0
887 296 1 0.5897 2.220131168998375 14.949063971413642 19.574581066384155 0 0 0
868 290 2 -1.1794 4.260734188808281 14.58220683093077 17.12824826157958 0 0 0
880 294 2 -1.1794 4.216039544984825 17.373867919069543 17.4002980087512 0 0 0
875 292 1 0.5897 0.7881617151530594 17.746166171884553 18.417604706765317 0 0 0
870 290 1 0.5897 4.957298502921929 14.426013877655983 17.76599647661878 0 0 0
876 292 1 0.5897 1.1843270219016564 18.106543276728367 17.001498233542833 0 0 0
882 294 1 0.5897 4.314264049667901 16.439014305984877 17.219443335314473 0 0 0
878 293 1 0.5897 4.732298507142978 18.36644787717287 15.95105202538788 0 0 0
881 294 1 0.5897 3.2960121479909734 17.475769100308472 17.644168526637273 0 0 0
897 299 1 0.5897 1.144074519215447 16.06649688954671 16.524861513770674 0 0 0
874 292 2 -1.1794 1.3051536971125002 17.436131645790457 17.6740114915332 0 0 0
782 261 1 0.5897 2.7653599430245626 11.40804393914539 20.496273564484426 0 0 0
889 297 2 -1.1794 2.7750609668766146 18.858028768192256 20.314259640274194 0 0 0
218 73 1 0.5897 2.6266779774536215 17.02926396908687 20.408932673022676 0 0 -1
771 257 1 0.5897 4.274022742289456 13.409260809498356 15.802259745864337 0 0 0
895 299 2 -1.1794 1.0320346338455182 15.368234200786766 15.879724908533765 0 0 0
217 73 2 -1.1794 2.6767914368340207 16.135377243567532 20.747685128473744 0 0 -1
883 295 2 -1.1794 0.43910342916221806 19.305882983816282 15.658304481494644 0 0 0
775 259 2 -1.1794 0.6115181027879377 12.64884915036281 15.749133953744995 0 0 0
777 259 1 0.5897 0.695850241998777 13.59371865445531 15.877182996268669 0 0 0
68 23 1 0.5897 8.227560870208906 2.0174051135611677 1.5467696666540671 0 0 0
155 52 1 0.5897 7.813317932233087 9.826411461804048 3.6501991988832128 0 0 0
273 91 1 0.5897 7.579117649270431 0.05243217054480923 1.9351459237935849 0 1 0
711 237 1 0.5897 8.557388241070106 5.584859800588992 0.9388847293845624 0 0 1
47 16 1 0.5897 7.852114204197621 3.20724668287325 3.3486248839544657 0 0 0
69 23 1 0.5897 6.73053386774382 1.9625754339754686 1.7658287041615675 0 0 0
46 16 2 -1.1794 8.04001590586761 4.060435151195492 3.739872094181564 0 0 0
48 16 1 0.5897 7.239463637308743 4.289489374733273 4.212050054220312 0 0 0
67 23 2 -1.1794 7.565310436641369 1.7602857833293373 2.1883622244007714 0 0 0
176 59 1 0.5897 7.180843514054692 7.87651590787405 2.1428592042710544 0 0 0
55 19 2 -1.1794 7.117887365649259 5.957328805493705 2.013175609862561 0 0 0
56 19 1 0.5897 6.251233182232078 5.650740937928539 1.7463143058737054 0 0 0
177 59 1 0.5897 7.845369548999445 9.146165090907571 1.6545028207502905 0 0 0
34 12 2 -1.1794 5.342206732074095 2.4084240680099622 0.552228976660203 0 0 0
143 48 1 0.5897 5.895118856094387 9.114733229290161 0.9634194885259444 0 0 0
175 59 2 -1.1794 7.175638841306256 8.826641139480106 2.2592273650270287 0 0 0
138 46 1 0.5897 6.6147575514633665 7.345494469048937 4.908583543451704 0 0 0
57 19 1 0.5897 7.440286198754632 5.278850117852746 2.606501402015737 0 0 0
142 48 2 -1.1794 5.278769552614626 9.068393374720543 0.23247763359436346 0 0 0
166 56 2 -1.1794 8.523495943277712 7.3817379827341725 5.073456923543556 0 0 0
53 18 1 0.5897 9.905336791101218 4.078470602784293 3.811939950506485 0 0 0
41 14 1 0.5897 9.964318225090167 0.896057457711737 4.004876532523096 0 0 0
29 10 1 0.5897 6.837615138401186 0.6027256866235707 5.089098203427527 0 0 0
145 49 2 -1.1794 9.139116033671158 9.267015072617339 0.34381864133615636 0 0 0
710 237 1 0.5897 9.326989626901169 4.456603122238273 0.2855488146304239 0 0 1
36 12 1 0.5897 5.3581823599845215 3.3161766260143857 0.24887049285707263 0 0 0
37 13 2 -1.1794 9.460029271496083 2.5664082625397677 0.3959012663477992 0 0 0
709 237 2 -1.1794 9.252389828034026 5.41074931263584 0.3040732229840941 0 0 1
59 20 1 0.5897 8.75591767905249 1.5549317836214263 5.763393989916444 0 0 0
466 156 2 -1.1794 5.4229389024339305 9.03879999895002 7.31330713705705 0 0 0
393 131 1 0.5897 7.541428640229682 0.8806619445741719 8.931648338234767 0 0 0
362 121 1 0.5897 9.21520152096976 3.600746486217254 6.85920331288162 0 0 0
391 131 2 -1.1794 7.5474618526223285 1.8370322926073908 8.971811203284577 0 0 0
360 120 1 0.5897 5.706107674828392 1.7471012915225588 6.4776128633021735 0 0 0
8 3 1 0.5897 5.6870686583877825 3.9037623456020567 6.052899880470952 0 0 0
359 120 1 0.5897 6.293638208167422 2.3503000202058852 7.735837526246709 0 0 0
361 121 2 -1.1794 9.386553701236128 2.67688235632183 7.04198098052658 0 0 0
392 131 1 0.5897 8.17701429502788 2.101433722009676 8.300942033801638 0 0 0
60 20 1 0.5897 8.894174103818896 0.0517473359214371 5.6477822753144995 0 0 0
381 127 1 0.5897 7.353992402114147 5.19427288787373 9.368221315784421 0 0 0
338 113 1 0.5897 5.2305127798771185 5.534653240541097 8.495643410447018 0 0 0
62 21 1 0.5897 8.334252724279098 5.48224515501174 7.331040153220567 0 0 0
470 157 1 0.5897 8.785491684038119 8.900991837478667 7.825578287773405 0 0 0
380 127 1 0.5897 7.18224214283138 6.605177851206388 8.846750330660822 0 0 0
499 167 2 -1.1794 7.474004143699834 8.445896600124515 9.101811969644585 0 0 0
168 56 1 0.5897 8.753935514505484 8.064574816659757 5.703482537514654 0 0 0
469 157 2 -1.1794 9.220142070258001 9.063440298524375 6.98831345691522 0 0 0
61 21 2 -1.1794 9.051885619317487 5.333744680646976 6.7151866134528255 0 0 0
467 156 1 0.5897 5.673589671134516 8.414780467921537 6.632055809707901 0 0 0
500 167 1 0.5897 7.522186274390091 9.211901883273084 9.673856885250288 0 0 0
379 127 2 -1.1794 7.114758825624539 5.687365326077743 8.583385581935904 0 0 0
501 167 1 0.5897 6.755584206286465 8.640634390901974 8.499922462836656 0 0 0
358 120 2 -1.1794 5.5941814383813275 2.471225096605614 7.093602634848397 0 0 0
7 3 2 -1.1794 5.74182721819629 4.4971318181698035 5.3037335333522835 0 0 0
28 10 2 -1.1794 5.890289949582793 0.4953406994063845 5.174825036558748 0 0 0
137 46 1 0.5897 5.71675280220258 6.2039478287025 5.335843802467204 0 0 0
167 56 1 0.5897 8.738800064243632 6.562036544659355 5.5184770361306 0 0 0
136 46 2 -1.1794 5.738166339650877 7.156481518103934 5.243507236203548 0 0 0
63 21 1 0.5897 9.844120248544066 5.5091069656175256 7.223056841065406 0 0 0
58 20 2 -1.1794 8.58982986779357 0.8229509565110112 5.169315290929123 0 0 0
352 118 2 -1.1794 6.146729039818637 0.8970945794842672 12.144635303086783 0 0 0
462 154 1 0.5897 5.246893238784584 7.71415845849267 11.531172885787036 0 0 0
370 124 2 -1.1794 7.638127778340254 4.117795615380213 10.752329256139308 0 0 0
372 124 1 0.5897 7.0250202113542395 4.2672879565015664 11.472109502077965 0 0 0
331 111 2 -1.1794 5.946228290893147 4.701313173533206 12.769086228473476 0 0 0
382 128 2 -1.1794 8.997481431102104 0.7357318783031541 11.872475175877943 0 0 0
354 118 1 0.5897 5.9471433788719885 1.4579352422033096 12.894268052220518 0 0 0
791 264 1 0.5897 5.556801174183396 9.215719178042177 14.925175334328475 0 0 0
686 229 1 0.5897 8.814434164674397 2.3302737747427016 14.742728597211018 0 0 0
384 128 1 0.5897 9.652770815531285 0.9722200090231009 11.215980326049692 0 0 0
353 118 1 0.5897 7.102326264561152 0.9021011912757536 12.088850621557553 0 0 0
685 229 2 -1.1794 9.303905830756918 2.460221557338547 13.930408643831774 0 0 0
684 228 1 0.5897 5.5171625885108515 3.356977135174452 13.861476340491738 0 0 0
383 128 1 0.5897 9.075279255580265 1.4132967248624602 12.544168725962896 0 0 0
386 129 1 0.5897 8.932897478990084 4.332288602477562 13.560497002370793 0 0 0
460 154 2 -1.1794 5.814234465496122 7.538686490174968 12.281933961050798 0 0 0
333 111 1 0.5897 5.917693441074232 5.654240892700413 12.855174983906528 0 0 0
793 265 2 -1.1794 9.08250111580281 9.26794710887743 14.235391817151378 0 0 0
491 164 1 0.5897 9.029240313564287 7.689938636485598 11.359262523406095 0 0 0
332 111 1 0.5897 5.172076575482444 4.483971010481482 12.249699288702004 0 0 0
385 129 2 -1.1794 8.918619262168539 5.208493565057677 13.945680332372074 0 0 0
790 264 2 -1.1794 5.037687727560725 9.327977794265427 14.12879011676574 0 0 0
492 164 1 0.5897 7.652707378066397 7.688154628680926 11.989547527807956 0 0 0
794 265 1 0.5897 9.008663203243195 8.686869254494269 13.478269320721589 0 0 0
387 129 1 0.5897 8.782821156426897 5.79546859050932 13.201804431137255 0 0 0
461 154 1 0.5897 5.45459906863229 8.078498374211053 12.985921814432603 0 0 0
490 164 2 -1.1794 8.565743507971192 7.460127867840038 12.164678547527767 0 0 0
705 235 1 0.5897 7.729276320331591 5.663263433943293 15.303314768680341 0 0 0
682 228 2 -1.1794 5.423009042915663 2.5117107154643183 14.300731803704885 0 0 0
377 126 1 0.5897 9.465732572888045 4.104832156593275 10.425004712323638 0 0 0
824 275 1 0.5897 7.86853812893368 9.000667452879624 15.467132993699794 0 0 0
371 124 1 0.5897 7.5267443190864345 3.193355992124745 10.530266796253624 0 0 0
704 235 1 0.5897 6.3005668120239084 5.814421632267327 15.780837259969955 0 0 0
655 219 2 -1.1794 5.687077630619375 4.649457747166408 19.626049250025353 0 0 0
35 12 1 0.5897 5.6058026758432575 1.8954103016303772 20.59286895309974 0 0 -1
814 272 2 -1.1794 8.781783029850681 7.371195789706578 19.10401817845613 0 0 0
696 232 1 0.5897 7.57685784078391 4.751254923862934 17.344501034906898 0 0 0
816 272 1 0.5897 8.92203972226835 8.177723309327922 19.600162448589224 0 0 0
715 239 2 -1.1794 7.600589413600028 1.9940200960648133 16.098814539605037 0 0 0
703 235 2 -1.1794 7.205190873633635 6.009285485650364 16.025765844702796 0 0 0
694 232 2 -1.1794 7.822014153771477 4.040343931915289 17.936806152722475 0 0 0
38 13 1 0.5897 9.270608519362744 2.120607187816111 20.374860406108887 0 0 -1
695 232 1 0.5897 7.698162742839608 3.2440614010316735 17.42016846375156 0 0 0
708 236 1 0.5897 7.82097238037044 1.1115620314144796 18.95996133329237 0 0 0
657 219 1 0.5897 6.497296759814088 4.37622621883005 19.1957066632908 0 0 0
676 226 2 -1.1794 5.975992462376459 0.7834166232244054 19.24172196435981 0 0 0
706 236 2 -1.1794 8.777266803377684 1.1050141845138155 19.001968865791333 0 0 0
825 275 1 0.5897 7.104178831772211 7.885277374105427 16.148131310955556 0 0 0
784 262 2 -1.1794 6.003433170709506 7.284542103455482 19.20252285731509 0 0 0
815 272 1 0.5897 8.820114248770722 6.675753209769883 19.760669200882575 0 0 0
786 262 1 0.5897 6.94789814026194 7.357569915813641 19.064852914386492 0 0 0
702 234 1 0.5897 9.78749719856762 3.9043841156974697 17.767558462030635 0 0 0
677 226 1 0.5897 5.397770830185879 0.8935879291860678 18.486832845919203 0 0 0
823 275 2 -1.1794 7.150428511392485 8.838899610305303 16.079074840864017 0 0 0
785 262 1 0.5897 5.862944109433931 6.362601591905033 19.41837884721369 0 0 0
716 239 1 0.5897 7.628934279383674 1.0377773602179274 16.065623058190283 0 0 0
144 48 1 0.5897 5.630438532051539 8.382315655862518 20.469710275009014 0 0 -1
707 236 1 0.5897 8.993806268033042 0.26698751008953536 19.410788276643927 0 0 0
797 266 1 0.5897 9.788446780289403 7.810867516431254 17.592439537744184 0 0 0
717 239 1 0.5897 6.825947234644842 2.229037431447541 15.587930473249333 0 0 0
271 91 2 -1.1794 7.457167412403559 19.165481023353085 1.6480295798415816 0 0 0
154 52 2 -1.1794 8.070571327284652 10.635670206987538 4.092051106962276 0 0 0
246 82 1 0.5897 5.171029629291918 13.953311590038624 4.446445048914976 0 0 0
165 55 1 0.5897 7.589919090388088 12.113741706067897 2.9010057943776113 0 0 0
163 55 2 -1.1794 7.472226280142916 12.800646466146315 2.2447812586510816 0 0 0
819 273 1 0.5897 8.533360147818884 12.329465840709354 0.6403032270439281 0 0 1
164 55 1 0.5897 6.617877039254659 12.61593239978035 1.8545559397858051 0 0 0
156 52 1 0.5897 8.993907251538992 10.749174623248363 3.8665004111602346 0 0 0
272 91 1 0.5897 7.531324010253431 18.64736747852903 2.4495216367894175 0 0 0
285 95 1 0.5897 7.63364404314087 14.609494631019457 2.3013561916843184 0 0 0
263 88 1 0.5897 7.436132933596981 17.795318700533908 4.521608986846738 0 0 0
251 84 1 0.5897 6.098675245406658 15.610802941953011 0.9138843623774952 0 0 0
276 92 1 0.5897 9.181114738484064 14.188014632635296 4.355293569479921 0 0 0
254 85 1 0.5897 9.070670369433103 15.660793266858457 0.6316217734545534 0 0 0
927 309 1 0.5897 8.539484850367598 18.936766303516382 0.224326086806924 0 0 1