LAMMPS data file via write_data, version 30 Jul 2021, timestep = 22250000

1296 atoms
2 atom types
864 bonds
1 bond types
432 angles
1 angle types

-10.623315527154453 12.603315527154454 xlo xhi
-9.125738907530176 12.115736907530176 ylo yhi
0.16896558119573157 21.691033418807002 zlo zhi
-9.014016850566497 1.9352681625724981 2.8213731320505286 xy xz yz

Masses

1 1.008
2 15.999

Pair Coeffs # lj/cut/tip4p/long/omp

1 0 0
2 0.21084 3.1668

Bond Coeffs # harmonic/omp

1 450 0.9572

Angle Coeffs # harmonic/omp

1 55 104.52

Atoms # full

323 108 1 0.5897 -6.300728187836423 -5.558088050128358 3.328556161636758 1 1 0
298 100 2 -1.1794 -5.971046649094003 -6.9870190918886 4.258279395748997 1 1 0
280 94 2 -1.1794 -9.46138854745174 -4.580667632266165 1.442166348808562 1 1 0
299 100 1 0.5897 -6.6261039834347475 -7.684420572877455 4.231130247009033 1 1 0
270 90 1 0.5897 -8.337163574811736 -7.420576387840772 2.0229527362456103 1 1 0
163 55 2 -1.1794 -6.928950939950718 -7.928477874225656 0.9133224318774948 1 1 0
164 55 1 0.5897 -6.107243041333449 -8.306871249806552 1.2259618552653202 1 1 0
269 90 1 0.5897 -9.056128204598831 -6.122500294772834 2.3231686830185727 1 1 0
268 90 2 -1.1794 -8.88335887293531 -6.992752732996831 2.682416317701691 1 1 0
275 92 1 0.5897 -10.383034793331781 -8.08753411110017 3.329722597833301 1 1 0
324 108 1 0.5897 -7.116110917648465 -4.311594043211016 3.5994899583369606 1 1 0
73 25 2 -1.1794 -8.136402503294107 -3.7855898943089663 4.948397636769598 1 0 0
314 105 1 0.5897 -8.957904155143416 -6.579740797800083 4.47491213128276 1 1 0
315 105 1 0.5897 -8.61501022392165 -5.492481298681999 5.471039641798812 1 1 0
259 87 2 -1.1794 -6.489957962338773 -5.3233109880867975 0.2855609414726537 1 1 0
282 94 1 0.5897 -10.35192033519562 -4.424967266984412 1.7565964169076669 1 1 0
281 94 1 0.5897 -9.006090136046774 -3.7519273569329856 1.5909386824724603 1 1 0
322 108 2 -1.1794 -6.463701583835008 -4.673904541517823 3.0000554966767528 1 1 0
260 87 1 0.5897 -6.516812863258717 -6.276254876328757 0.3719955375694419 1 1 0
75 25 1 0.5897 -8.972075205499822 -3.420839307749816 4.657302378034522 1 0 0
261 87 1 0.5897 -6.590522910456407 -4.998198209266946 1.1802238819222841 1 1 0
300 100 1 0.5897 -5.134737622832493 -7.438953411734376 4.146439210177121 1 1 0
313 105 2 -1.1794 -8.990694990503798 -6.3706608796195505 5.408411312021878 1 1 0
165 55 1 0.5897 -7.210214863034782 -8.513600582713108 0.2099290937117795 1 1 0
429 143 1 0.5897 -6.211210494889962 -6.904126174750446 8.506071738030672 1 0 0
428 143 1 0.5897 -6.507442948658629 -7.065240386956348 9.981901921270252 1 0 0
427 143 2 -1.1794 -5.801107745986824 -6.85902498049062 9.369740197709465 1 0 0
419 140 1 0.5897 -9.04668163324054 -5.096386069240763 8.946848356984145 1 0 0
418 140 2 -1.1794 -9.71939487746838 -5.596799865122174 9.408603390331676 1 0 0
413 138 1 0.5897 -7.890603324672547 -3.3830455873885237 7.967173343402956 1 0 0
616 206 2 -1.1794 -7.325906302799 -7.786288899355061 7.26742723206204 1 1 0
420 140 1 0.5897 -9.228966468376766 -6.20576647238742 9.96069072142321 1 0 0
618 206 1 0.5897 -7.727016619108154 -7.164957442001578 6.659800354937772 1 1 0
350 117 1 0.5897 -7.1562462582533035 -3.98014824804633 10.01385322388346 0 0 0
414 138 1 0.5897 -7.110972676832058 -4.6463136422197 7.669922068613772 1 0 0
412 138 2 -1.1794 -7.7392447138202165 -4.272230416525728 8.287640047941048 1 0 0
627 209 1 0.5897 -10.254898869867528 -6.778100045745369 6.685034440773454 1 1 0
351 117 1 0.5897 -6.776007296481358 -2.7343232503565806 10.785446254768498 0 0 0
626 209 1 0.5897 -10.478859204719443 -6.556734559025022 8.165801168610887 1 1 0
349 117 2 -1.1794 -7.059960815520547 -3.6407802177100406 10.90366200921021 0 0 0
631 211 2 -1.1794 -5.789241276514529 -5.307088558653206 6.34763947580293 1 1 0
633 211 1 0.5897 -5.999348392835588 -5.862397014987234 5.596822343557259 1 1 0
74 25 1 0.5897 -7.880861803249584 -3.2375111945384853 5.690382444635928 1 0 0
727 243 2 -1.1794 -7.99622881031519 -7.321227568865649 10.871385348589955 1 0 0
684 228 1 0.5897 -8.475284380445542 -6.306764013965967 14.14763283388276 0 0 0
740 247 1 0.5897 -10.832754936063653 -3.4324658268269097 11.983456751683743 1 0 0
652 218 2 -1.1794 -5.6197383544019415 -5.215987378248164 12.679833605669128 0 0 0
682 228 2 -1.1794 -7.7750326165879695 -6.694335928968005 13.622593997510629 0 0 0
780 260 1 0.5897 -7.297473399847277 -3.960925059457521 15.22622487793699 0 0 0
779 260 1 0.5897 -6.97178591153252 -2.794416160416567 14.317917427543614 0 0 0
778 260 2 -1.1794 -7.706576298511575 -3.287298403755223 14.683054131731998 0 0 0
768 256 1 0.5897 -9.363887406857398 -2.6065442458628496 14.90585580857702 0 0 0
654 218 1 0.5897 -6.030561438584506 -4.578133212180155 12.096275339014596 0 0 0
653 218 1 0.5897 -6.350890115919715 -5.71883707114255 13.038627039903263 0 0 0
661 221 2 -1.1794 -9.250532044164988 -4.1625937582687325 12.518403491494535 0 0 0
766 256 2 -1.1794 -10.21510244958123 -2.178859338927041 14.999104597070124 0 0 0
662 221 1 0.5897 -8.871010015738978 -4.057900349941409 13.39084400244669 0 0 0
663 221 1 0.5897 -8.517991951458207 -4.019301304331107 11.919217345720943 0 0 0
729 243 1 0.5897 -7.920720840625616 -7.002645063372826 11.770839578849193 1 0 0
767 256 1 0.5897 -10.847416077634383 -2.8973205061694323 14.984747821052126 0 0 0
788 263 1 0.5897 -4.789335602565869 -4.5296479544205805 15.53116519711008 0 0 0
749 250 1 0.5897 -10.215998818753462 -5.819881432949486 12.48161514790943 1 0 0
757 253 2 -1.1794 -9.627603427426564 -5.615183477701036 15.360474968642398 0 0 0
758 253 1 0.5897 -9.353152798865283 -5.058530334093834 16.089206169866152 0 0 0
1248 416 1 0.5897 -5.735573491968627 -1.7496807179588991 20.545926694241984 0 0 0
1097 366 1 0.5897 -9.075776184401096 -5.77640931071552 18.547670796747596 0 0 0
1131 377 1 0.5897 -7.003956305502953 -1.9233932368087352 16.997188084304906 0 0 0
1219 407 2 -1.1794 -10.414869338756992 -1.811824316722146 20.252528621393317 0 0 0
1152 384 1 0.5897 -7.043346916032029 -3.9673215370077113 19.467080556948495 0 0 0
1225 409 2 -1.1794 -8.285936684053343 -3.420438902146362 20.795426329476463 0 0 0
1227 409 1 0.5897 -9.078041436863886 -2.969066555629132 20.503934882021735 0 0 0
1109 370 1 0.5897 -8.73330092096121 -3.3825868568573005 17.79640282333667 0 0 0
1108 370 2 -1.1794 -9.32137607658192 -4.136670621772172 17.838135322195843 0 0 0
1089 363 1 0.5897 -6.3307625209501746 -4.5629359087518875 17.278649068983064 0 0 0
1121 374 1 0.5897 -4.631644019317651 -3.64509631694005 18.476959810322192 0 0 0
1130 377 1 0.5897 -7.106447455502968 -1.997643244437322 18.50574793018114 0 0 0
1141 381 2 -1.1794 -8.606333457890734 -6.2279180640313605 21.534268601892894 0 0 0
1151 384 1 0.5897 -6.204052412078994 -5.227076491719876 19.443559197240653 0 0 0
1150 384 2 -1.1794 -6.254468936099302 -4.3441247058794765 19.07735185025036 0 0 0
1129 377 2 -1.1794 -7.629506616224839 -2.0674292309797018 17.707206758195667 0 0 0
1087 363 2 -1.1794 -6.287350109318846 -4.944878812754455 16.402023935277153 0 0 0
1110 370 1 0.5897 -10.197792572854688 -3.762719950807874 17.747622933011755 0 0 0
1143 381 1 0.5897 -8.492789177304662 -5.278944548289508 21.480907002486436 0 0 0
1226 409 1 0.5897 -7.84856232610627 -2.7911920942473616 21.36899414261955 0 0 0
1088 363 1 0.5897 -6.4654726187337 -5.875701765584097 16.536641886654408 0 0 0
1096 366 2 -1.1794 -8.852978162465847 -6.662997326164996 18.831536108543613 0 0 0
97 33 2 -1.1794 -11.967207061858824 1.007907195295589 5.395958440632433 1 0 0
69 23 1 0.5897 -10.958552303230219 -2.8375668469976167 3.348807601326905 1 0 0
272 91 1 0.5897 -9.414677566884622 -1.2417805354506664 1.0465504776938572 1 1 0
271 91 2 -1.1794 -10.266986205958514 -0.8880966677331141 0.7923990781910986 1 1 0
82 28 2 -1.1794 -9.176149194428397 -0.12924611575682476 4.276326233102833 1 0 0
256 86 2 -1.1794 -11.930571125256558 -3.527979866133351 2.0339021940981388 1 1 0
258 86 1 0.5897 -12.286002366097211 -2.8804860965633736 1.4251327409957175 1 1 0
83 28 1 0.5897 -9.670099069660093 -0.94245052798194 4.171643341966734 1 0 0
67 23 2 -1.1794 -10.592978891841815 -2.5164707939074438 4.1730853674121535 1 0 0
59 20 1 0.5897 -13.327011435002351 -0.9838235046258106 3.4225965635248916 1 0 0
68 23 1 0.5897 -11.24496684845453 -2.7525233304500416 4.832909273469985 1 0 0
52 18 2 -1.1794 -11.954515328768894 0.11081397545712868 2.758165749229694 1 0 0
98 33 1 0.5897 -11.895369281667861 0.5341037599754834 4.567343972731372 1 0 0
53 18 1 0.5897 -12.101971908733464 0.9406135810761782 2.3043786296586783 1 0 0
54 18 1 0.5897 -11.304653040577755 -0.3437180850296091 2.222141684635184 1 0 0
301 101 2 -1.1794 -8.035042098061755 -2.1391915804548853 1.7051469186672192 1 1 0
99 33 1 0.5897 -11.71266080411791 1.9055289915415816 5.182074372302042 1 0 0
44 15 1 0.5897 -9.821805539693216 0.8259151001855081 0.27807888399415603 1 0 0
107 36 1 0.5897 -9.527437193055095 1.4620976492273492 3.540875693199514 1 0 0
84 28 1 0.5897 -8.263366256676242 -0.3839944915348088 4.141844661953037 1 0 0
1249 417 2 -1.1794 -13.260558437841352 -1.7916562030642122 0.1751033264006239 0 0 1
527 176 1 0.5897 -11.993082237765687 1.8399433163795589 8.7579954316442 1 0 0
526 176 2 -1.1794 -12.633252669651398 1.3082840565288674 9.230969562870685 1 0 0
426 142 1 0.5897 -8.965060750989206 -1.481238861842213 6.910169845620365 1 0 0
411 137 1 0.5897 -13.473329183939072 0.48967458786586704 6.248085141145568 1 0 0
424 142 2 -1.1794 -8.0681605444678 -1.8135963435296407 6.945512294779852 1 0 0
402 134 1 0.5897 -11.033566743888914 0.08570597694058613 6.5623589145059515 1 0 0
401 134 1 0.5897 -11.194251220400123 -1.024628724250869 7.578781169992472 1 0 0
400 134 2 -1.1794 -10.536112764332646 -0.4646663654905403 7.167159051058917 1 0 0
537 179 1 0.5897 -9.458456975309197 0.038565991288686874 8.554278264502537 1 0 0
536 179 1 0.5897 -9.753720564509594 -0.012744711628469574 10.038188598960657 1 0 0
535 179 2 -1.1794 -9.04142094465194 0.11737939877317949 9.412190587825606 1 0 0
528 176 1 0.5897 -12.116028016965554 0.829489741300037 9.87856326461922 1 0 0
435 145 1 0.5897 -7.566671440794174 -0.6117325649355028 9.881814081419426 0 0 0
522 174 1 0.5897 -10.036942831896862 2.366436870515898 7.519742714175234 1 0 0
410 137 1 0.5897 -13.472694635504098 0.5249058779372504 7.761533527158496 1 0 0
443 148 1 0.5897 -8.059561313667333 1.7060600086196178 9.5475556584428 0 0 0
425 142 1 0.5897 -7.528186267215284 -1.0336944548663443 7.073644665360761 1 0 0
415 139 2 -1.1794 -8.741503352800812 1.7048693549127716 6.304758782138677 1 0 0
417 139 1 0.5897 -9.020682477234056 1.069046957556818 5.645942397561307 1 0 0
790 264 2 -1.1794 -10.655169326513931 0.43019750861964745 13.775396592036138 0 0 0
769 257 2 -1.1794 -12.318813003260718 2.7178891356679333 12.379778450221634 0 0 0
762 254 1 0.5897 -9.129525454148155 2.444122864458002 11.961185259223019 0 0 0
761 254 1 0.5897 -9.316365771569156 1.451910895188453 13.089195519176926 0 0 0
760 254 2 -1.1794 -8.64545057888201 1.8499445982013203 12.534582494046271 0 0 0
896 299 1 0.5897 -8.036020135066595 2.5635484893947638 15.474590206523738 0 0 0
792 264 1 0.5897 -11.42311071956349 0.8164151741234633 14.196481360661247 0 0 0
836 279 1 0.5897 -11.253733018940805 -1.1891597128407545 11.192516036269316 1 0 0
837 279 1 0.5897 -11.061419148581862 0.05806890454150526 12.028847881478121 1 0 0
791 264 1 0.5897 -10.53367066144526 -0.40843703416770083 14.220550655410152 0 0 0
888 296 1 0.5897 -10.49737288788799 3.2443518076467814 15.113624934650465 0 0 0
835 279 2 -1.1794 -11.213670073219534 -0.2347866488453505 11.130384413751873 1 0 0
771 257 1 0.5897 -11.52846465349191 2.9432526046613567 11.889143093509484 0 0 0
865 289 2 -1.1794 -12.624949332431791 1.4319182498440295 15.513881412845658 0 0 0
770 257 1 0.5897 -12.065679125506248 2.810297707728468 13.298228393733673 0 0 0
866 289 1 0.5897 -12.255352125579678 1.8902458681841416 16.268559433905686 0 0 0
1009 337 2 -1.1794 -11.099857871367643 3.609495899968497 20.894362827597032 0 -1 0
1260 420 1 0.5897 -9.840784785883734 3.1311168788417447 19.6482145062588 0 0 0
1196 399 1 0.5897 -9.669309508938971 1.3161502326443895 16.436016163346267 0 0 0
1259 420 1 0.5897 -9.025546447299885 1.9239922370660896 19.235593630951662 0 0 0
1258 420 2 -1.1794 -9.206816122596223 2.8328491391906887 18.996030808480715 0 0 0
1250 417 1 0.5897 -11.233146670897732 0.7411796411939999 20.789161496761317 0 0 0
1195 399 2 -1.1794 -9.55962698464934 2.259357249210984 16.315159581138385 0 0 0
1205 402 1 0.5897 -11.86141938641227 1.5554157647286164 18.630327875635768 0 0 0
1236 412 1 0.5897 -7.7358411352761145 -0.19607235823329283 19.998762167932334 0 0 0
1216 406 2 -1.1794 -12.273567785720957 3.069957605171547 17.928208978674828 0 0 0
1235 412 1 0.5897 -9.229064206590975 -0.43926951594558084 20.051315043420075 0 0 0
1234 412 2 -1.1794 -8.578135881578833 0.25750100566027534 19.967587605111515 0 0 0
1099 367 2 -1.1794 -9.795726981273196 -0.398358565888552 17.05198834227896 0 0 0
1100 367 1 0.5897 -8.986945312967396 -0.7797504371315949 17.393371170648205 0 0 0
1206 402 1 0.5897 -10.98574236560336 0.3659474455689118 18.29816764165316 0 0 0
1011 337 1 0.5897 -11.94300969960502 4.009544882913513 20.68176979616972 0 -1 0
1197 399 1 0.5897 -9.455882171253903 2.6045265693959987 17.201899988645355 0 0 0
1246 416 2 -1.1794 -6.2031374085789475 -1.1743323820214453 19.940517991208253 0 0 0
1218 406 1 0.5897 -13.136172008324774 3.4818497678038707 17.97724321659464 0 0 0
1010 337 1 0.5897 -10.793112808687246 4.090485894599503 21.662981646259933 0 -1 0
1229 410 1 0.5897 -7.762776616238871 3.7437326312186805 18.229026051286382 0 0 0
1204 402 2 -1.1794 -11.69637409356565 0.6449825433659377 18.8755390887391 0 0 0
1101 367 1 0.5897 -10.130139947074225 -1.0536252355691662 16.439584600034006 0 0 0
273 91 1 0.5897 -8.534174823210765 1.4991440368077935 21.485754667130305 1 1 -1
1217 406 1 0.5897 -11.663457722430447 3.8014253367573634 17.83368130244095 0 0 0
1251 417 1 0.5897 -11.400074935976125 1.9823030338904406 21.639942593908682 0 0 0
40 14 2 -1.1794 -15.04051006906527 3.7637006933404145 1.7802453093613653 1 0 0
177 59 1 0.5897 -14.084108200855132 4.586169449993324 3.0645504440052798 1 0 0
42 14 1 0.5897 -15.359115059736933 4.456549846410994 1.2017719686337889 1 0 0
86 29 1 0.5897 -10.59191312879044 5.014971911147041 2.424869481876748 1 0 0
175 59 2 -1.1794 -13.73587723197312 4.965537045722501 3.871401719711248 1 0 0
55 19 2 -1.1794 -13.304866738124897 6.15634207099259 0.8948687124607027 1 0 0
56 19 1 0.5897 -12.46694479952031 5.845029088115547 1.23704511752484 1 0 0
66 22 1 0.5897 -13.455876309613426 2.874402152131159 1.6082310464765974 1 0 0
65 22 1 0.5897 -11.987434245851983 3.2396355530826693 1.5644286581820808 1 0 0
64 22 2 -1.1794 -12.580992978090437 2.4886964476257987 1.5637746216768573 1 0 0
45 15 1 0.5897 -9.609603332347193 1.9785673808077817 1.2364043025949865 1 0 0
85 29 2 -1.1794 -10.957966978162933 4.842295219801679 1.557490415422343 1 0 0
191 64 1 0.5897 -12.641351083392001 6.41210253376682 4.05038751356378 1 0 0
108 36 1 0.5897 -10.231260891122059 2.801773605128055 3.4975065055405063 1 0 0
183 61 1 0.5897 -12.261637686488474 3.968406396089282 4.360508791615138 1 0 0
181 61 2 -1.1794 -11.47060208842697 3.57676553039898 4.7306481766474375 1 0 0
176 59 1 0.5897 -14.398190930579354 4.769653734419673 4.534083080086994 1 0 0
43 15 2 -1.1794 -9.704644075062685 1.7755468374156536 0.30584078730493974 1 0 0
190 64 2 -1.1794 -11.955013860903085 7.071996129796846 4.148758024107113 1 0 0
162 54 1 0.5897 -14.747941528958393 6.806759011273545 1.9569309062707636 1 0 0
167 56 1 0.5897 -16.604717212408676 6.1332723480221265 3.3925563771565366 1 0 0
192 64 1 0.5897 -11.15140840226588 6.566176269260385 4.2692943775518515 1 0 0
106 36 2 -1.1794 -9.54919769136202 2.2905845172397967 3.0619513027598426 1 0 0
182 61 1 0.5897 -11.192856246128475 4.192457282177635 5.4089004309274 1 0 0
57 19 1 0.5897 -13.515226548456184 5.548544031485056 0.1859378722657927 1 0 0
508 170 2 -1.1794 -13.535320096826942 6.633267544728422 7.199941102568426 1 0 0
645 215 1 0.5897 -12.463696862648549 7.131867843783207 8.594803944030705 1 0 0
644 215 1 0.5897 -12.481547708840846 6.964182963743637 10.099233473147532 1 0 0
643 215 2 -1.1794 -11.915738020405874 7.227989560591899 9.373670306234317 1 0 0
509 170 1 0.5897 -14.261641533435188 6.172224262675874 7.6195378588493545 1 0 0
636 212 1 0.5897 -15.058639999875526 7.625657762855292 9.768776860866748 1 0 0
532 178 2 -1.1794 -11.022799956971749 5.298398492657064 6.937721995496254 1 0 0
543 181 1 0.5897 -10.434517644886478 6.264609066102144 9.986743963691026 0 0 0
510 170 1 0.5897 -13.91119788342301 6.992223619084919 6.3962046287511996 1 0 0
534 178 1 0.5897 -11.78988039122326 5.870788247784629 6.950198800008279 1 0 0
521 174 1 0.5897 -10.63797331219618 3.7168217604341294 7.847303550803673 1 0 0
457 153 2 -1.1794 -10.141755631194863 3.4435570713155386 10.849445256280498 0 0 0
459 153 1 0.5897 -9.75695485441078 4.319305326891859 10.81405303069962 0 0 0
518 173 1 0.5897 -16.455109812618176 7.592655709631776 7.764315917592402 1 0 0
520 174 2 -1.1794 -10.566922735872083 2.8202742231961935 8.175036947558745 1 0 0
533 178 1 0.5897 -10.276739518779856 5.897576208596632 6.914011550284796 1 0 0
519 173 1 0.5897 -16.45200497066525 7.4986157192694645 6.2533794348065115 1 0 0
458 153 1 0.5897 -10.222212414371665 3.179520622474884 9.932920594335501 0 0 0
887 296 1 0.5897 -10.29791176745103 4.232553271379709 13.984252420478297 0 0 0
874 292 2 -1.1794 -13.444437643176755 4.917065542193239 14.739144647134879 0 0 0
876 292 1 0.5897 -12.568631883496469 4.5309021021130835 14.737450058681723 0 0 0
848 283 1 0.5897 -13.643821463076346 3.741216606055408 11.842173982311621 1 0 0
945 315 1 0.5897 -13.944758512034896 6.770732495063335 11.908967678434257 1 0 0
943 315 2 -1.1794 -14.04950116362873 6.543816479018286 10.984991642709229 1 0 0
900 300 1 0.5897 -14.668742257711013 7.6013576424398455 14.15453596010425 0 0 0
899 300 1 0.5897 -13.666023308823029 6.474239327904693 14.027723847050899 0 0 0
898 300 2 -1.1794 -13.91855179579155 7.310369956858446 13.636126892474843 0 0 0
886 296 2 -1.1794 -10.974278367772044 3.841262381106249 14.537061625593884 0 0 0
869 290 1 0.5897 -12.483493313252826 8.323208157397639 13.117296217944899 0 0 0
875 292 1 0.5897 -14.030605254688338 4.181537030428826 14.91696991050836 0 0 0
944 315 1 0.5897 -14.264313914605854 5.611015625145555 10.98975578194145 1 0 0
1209 403 1 0.5897 -13.290599928050172 5.84188661437889 16.309070575951843 0 0 0
650 217 1 0.5897 -15.41754525246921 8.595296594183383 16.057639981962883 0 -1 0
980 327 1 0.5897 -12.666916301167308 8.28519752662078 16.286051950498333 0 -1 0
1018 340 2 -1.1794 -11.656724045731625 7.275011880553686 20.273227919920593 0 -1 0
1019 340 1 0.5897 -12.219375571184434 6.500642553153037 20.271046361228606 0 -1 0
1020 340 1 0.5897 -10.773612546968375 6.929522037840483 20.403157611455775 0 -1 0
1043 348 1 0.5897 -11.932949405620331 8.794612131404266 19.404211143037106 0 -1 0
1237 413 2 -1.1794 -10.605516517902796 5.299551490248785 17.73285520269789 0 0 0
988 330 2 -1.1794 -14.94718432662581 7.589369692138655 18.86891626360531 0 -1 0
1030 344 2 -1.1794 -9.182815876910592 6.063057213270897 20.03349005109289 0 -1 0
1032 344 1 0.5897 -8.778858041267357 5.626397281005135 20.783349057740683 0 -1 0
1003 335 2 -1.1794 -13.366944458108113 4.987488126291133 20.36653609345765 0 -1 0
1207 403 2 -1.1794 -13.033986541695722 6.513697474601559 16.94079682781732 0 0 0
1208 403 1 0.5897 -12.202886414992989 6.201623589009172 17.29856826383497 0 0 0
1239 413 1 0.5897 -9.937308603840997 5.482767357813499 17.07246778444824 0 0 0
1238 413 1 0.5897 -10.141472169002988 5.362195224979931 18.56764764041332 0 0 0
990 330 1 0.5897 -14.318658346713702 7.1365716178100005 18.306620090142967 0 -1 0
1034 345 1 0.5897 -14.51305315441994 7.922336826479283 20.532080522053793 0 -1 0
989 330 1 0.5897 -15.17537548910928 8.382379258270324 18.383858030991508 0 -1 0
1035 345 1 0.5897 -14.284542669770536 9.19425831500484 21.32078093901888 0 -1 0
1033 345 2 -1.1794 -14.498915753981551 8.267174202129818 21.42489234502742 0 -1 0
291 97 1 0.5897 -14.852385800659835 10.906983736176938 4.273507254871039 1 0 0
174 58 1 0.5897 -16.23482940334938 10.127137526335579 1.6079418524050841 1 0 0
173 58 1 0.5897 -14.761076343703131 10.464044051852424 1.529496520120199 1 0 0
172 58 2 -1.1794 -15.36917959116586 9.72488080813328 1.5373134012193574 1 0 0
283 95 2 -1.1794 -16.480687629024025 11.862674935055816 4.277341354541369 1 0 0
161 54 1 0.5897 -15.443356216484611 8.104767748202617 2.308471295121279 1 0 0
152 51 1 0.5897 -12.934485584362598 7.84008876865944 0.4113470881949257 1 0 0
193 65 2 -1.1794 -13.588410370675318 11.822298934043191 1.3572590925997976 1 0 0
285 95 1 0.5897 -16.841690951599908 11.655213626426312 3.415481972323414 1 0 0
148 50 2 -1.1794 -17.85782813863608 10.774495400252666 2.046195778702331 1 0 0
289 97 2 -1.1794 -14.05263409104979 10.496410718282368 4.6020791666522936 1 0 0
150 50 1 0.5897 -18.29135814660998 11.111688703490485 1.2623053942126994 1 0 0
284 95 1 0.5897 -17.22835393108174 11.801402116929042 4.871830769187821 1 0 0
290 97 1 0.5897 -13.71056952521668 11.117809520692576 5.2447981576413545 1 0 0
216 72 1 0.5897 -12.89100143201596 9.973492068717634 3.524534259774209 1 0 0
205 69 2 -1.1794 -14.963798799465561 7.858465159931276 5.1109741656509105 1 0 0
215 72 1 0.5897 -12.196461556272595 8.664715886785325 3.2135211800757006 1 0 0
206 69 1 0.5897 -15.098049999461786 7.535960363166941 4.219810557077522 1 0 0
207 69 1 0.5897 -14.690433380685597 8.768857115861012 4.998152561788319 1 0 0
151 51 2 -1.1794 -12.754600029211275 8.774147223247938 0.3043054120633797 1 0 0
153 51 1 0.5897 -12.643338957512405 9.10101681454418 1.1970479111579666 1 0 0
160 54 2 -1.1794 -15.440485135473455 7.168917405368395 2.5095931785915258 1 0 0
525 175 1 0.5897 -11.744327081542941 8.050986225479638 5.477985163866541 1 0 0
640 214 2 -1.1794 -13.838273178720597 12.194560003743588 6.923573593960751 1 0 0
630 210 1 0.5897 -12.888966283063002 9.220707053784023 7.4509553629983545 1 0 0
629 210 1 0.5897 -13.517817315846107 10.559684211841033 7.773063627480595 1 0 0
628 210 2 -1.1794 -13.461421830818146 9.65574133894461 8.082850985269388 1 0 0
566 189 1 0.5897 -13.366073562514043 9.861528140930547 10.05386493462163 0 0 0
635 212 1 0.5897 -14.87583721684856 8.665901598947825 8.684209152102936 1 0 0
617 206 1 0.5897 -17.080623533460972 13.02375840654644 7.693338465287356 1 0 0
642 214 1 0.5897 -14.70949129422447 12.549380354178679 7.100348717339915 1 0 0
327 109 1 0.5897 -13.400485207323895 13.336582901409814 9.796831451622364 0 -1 0
523 175 2 -1.1794 -11.54731710123482 8.703016007468326 6.150516696258782 1 0 0
634 212 2 -1.1794 -15.54854323461519 8.182209748035115 9.163469868011358 1 0 0
567 189 1 0.5897 -13.138519418864322 11.147837436530184 10.819166949594488 0 0 0
641 214 1 0.5897 -13.25988742133844 12.956952706329718 6.944866221283733 1 0 0
658 220 2 -1.1794 -16.267835968979384 12.191800092746385 14.924222986055506 0 -1 0
870 290 1 0.5897 -12.250641703876362 9.411853555457045 12.09140020304307 0 0 0
683 228 1 0.5897 -16.648851590885382 13.683057306130449 14.009827682075972 0 -1 0
671 224 1 0.5897 -13.1743390814643 11.307202945824427 14.111939854195267 0 -1 0
670 224 2 -1.1794 -13.877931739881706 10.804143636803397 14.521895024506248 0 -1 0
672 224 1 0.5897 -13.439155662445042 10.279377343323015 15.191403988527576 0 -1 0
956 319 1 0.5897 -17.014806984291127 10.787441725409115 11.859716248113063 1 0 0
660 220 1 0.5897 -15.404320863202551 11.790414162468737 14.827239520959804 0 -1 0
879 293 1 0.5897 -14.878493215206678 9.884198993433904 11.862987380351228 0 0 0
878 293 1 0.5897 -15.150552017872137 10.2242172101404 13.312899043220982 0 0 0
877 293 2 -1.1794 -15.565330875128797 9.863433900293652 12.52933213512386 0 0 0
868 290 2 -1.1794 -11.789872305697326 8.832720070046099 12.698406578602413 0 0 0
680 227 1 0.5897 -10.981642187857261 9.41361942487224 15.501314338585798 0 -1 0
728 243 1 0.5897 -17.289401859972656 13.009139190639948 10.962083361181106 1 -1 0
659 220 1 0.5897 -16.878520627783516 11.45501381722117 14.903786164050121 0 -1 0
664 222 2 -1.1794 -11.953492497497972 12.217140300365566 13.362703062905629 0 -1 0
979 327 2 -1.1794 -12.458062494701057 9.219149066748782 16.306140027289672 0 -1 0
565 189 2 -1.1794 -13.285068906039784 10.209876639454487 10.941732031515135 0 0 0
1140 380 1 0.5897 -11.867994151961636 12.63904483580317 20.714804661672765 0 -1 0
1138 380 2 -1.1794 -12.241560822347322 13.219780417891032 20.05196609158308 0 -1 0
1128 376 1 0.5897 -13.800577801812505 14.089033568047492 20.207132106351935 0 -1 0
1127 376 1 0.5897 -15.283387296451904 13.784765723529121 20.189967888661457 0 -1 0
1022 341 1 0.5897 -13.035625040036976 12.409095696683787 18.61851541402261 0 -1 0
1119 373 1 0.5897 -14.730100353311531 11.205314137913584 20.683650622952612 0 -1 0
1117 373 2 -1.1794 -13.850960104006957 10.835141932721848 20.76258658632652 0 -1 0
1044 348 1 0.5897 -12.649254166519263 10.128279434005092 19.419551246032086 0 -1 0
1042 348 2 -1.1794 -11.99743055422465 9.62468968713956 18.931936773023683 0 -1 0
993 331 1 0.5897 -15.968422963694131 13.230257794502931 16.334869593958416 0 -1 0
981 327 1 0.5897 -12.295248054609552 9.408876895198228 17.23008257162329 0 -1 0
1111 371 2 -1.1794 -16.272073143284018 12.132934877248216 20.17540160677184 0 -1 0
991 331 2 -1.1794 -15.819504166895673 13.772996458243112 17.1091410158108 0 -1 0
992 331 1 0.5897 -14.969379599881265 13.486656173779993 17.44293019308352 0 -1 0
1126 376 2 -1.1794 -14.659019069975454 14.501492784655612 20.302581001811564 0 -1 0
1023 341 1 0.5897 -12.892482763408642 12.0903855277554 17.14550193640608 0 -1 0
1021 341 2 -1.1794 -13.546684824600554 12.212301267474112 17.833508023724598 0 -1 0
1001 334 1 0.5897 -14.713644713616716 10.699000177815437 17.762490126618562 0 -1 0
1000 334 2 -1.1794 -15.342782494970791 10.036345836807387 17.47741206866425 0 -1 0
1013 338 1 0.5897 -10.592912319684087 10.644033028407529 18.422904616252804 0 -1 0
1098 366 1 0.5897 -17.189334955618612 14.293371195423441 18.21858371099073 0 -1 0
1002 334 1 0.5897 -16.19012499651457 10.4803128758814 17.509952744147288 0 -1 0
1118 373 1 0.5897 -13.410807001397702 11.39634111969008 21.400970331015547 0 -1 0
1113 371 1 0.5897 -16.763083959630496 11.934883588700773 19.378009879205187 0 -1 0
1142 381 1 0.5897 -17.61207261290054 14.719219000074022 20.623491138533865 0 -1 0
305 102 1 0.5897 -1.5315132340030448 -6.050791649446447 2.2739176964971666 1 1 0
311 104 1 0.5897 -2.904870891141795 -7.7405059170945965 3.299296188617269 1 1 0
318 106 1 0.5897 -2.607964682073579 -4.048488438777579 1.4551865425661954 1 1 0
317 106 1 0.5897 -1.1315910962500375 -3.715935865636112 1.4182935256858513 1 1 0
3 1 1 0.5897 -1.5123455619277664 -3.2631673404824406 4.546773756275724 0 0 0
304 102 2 -1.1794 -1.4267848414257713 -6.991498305177471 2.4166935077220746 1 1 0
316 106 2 -1.1794 -1.7454054071058103 -4.445685159064492 1.33517246542242 1 1 0
242 81 1 0.5897 -0.8402465548345752 -6.812458809998596 4.273351207844432 0 1 0
306 102 1 0.5897 -0.7390803292676278 -7.2521622797359075 1.8040511708896032 1 1 0
293 98 1 0.5897 -4.896733036104211 -3.968595202076119 2.4118671234376263 1 1 0
310 104 2 -1.1794 -3.583020132835947 -8.223646578067523 3.771383655806662 1 1 0
241 81 2 -1.1794 -0.9622031508427469 -6.536379506012663 5.181717905423806 0 1 0
201 67 1 0.5897 0.44947315015797606 -8.49503579872827 0.25284157297475207 1 1 0
243 81 1 0.5897 -0.9959340676575952 -5.580663144805049 5.139678428694181 0 1 0
1 1 2 -1.1794 -0.7294409680558811 -3.7250538517458835 4.8465375885999284 0 0 0
544 182 2 -1.1794 0.32266878211486194 -7.81694532749777 7.135385290615188 0 1 0
555 185 1 0.5897 -2.6825824186768 -6.850607075403935 6.228756191317379 0 1 0
554 185 1 0.5897 -2.7562487786130516 -6.4632359961334735 7.690387336677427 0 1 0
553 185 2 -1.1794 -3.3045645832150914 -6.662562926178964 6.93160124850387 0 1 0
546 182 1 0.5897 -0.14915748672404305 -7.376792591496971 6.428429840004442 0 1 0
404 135 1 0.5897 -5.452237801660579 -3.5314673353665835 5.796342823337437 1 0 0
632 211 1 0.5897 -4.922773592404447 -5.601143953383582 6.62849542526827 1 1 0
348 116 1 0.5897 -1.1915391477098467 -6.326687243703883 9.699721985340032 0 0 0
347 116 1 0.5897 -0.9635922711196461 -5.361277529403626 8.556118437617657 0 0 0
346 116 2 -1.1794 -1.6460718643404988 -5.873622686581224 8.989599519857325 0 0 0
336 112 1 0.5897 -3.197399702473211 -5.022512653023821 9.439937691186396 0 0 0
334 112 2 -1.1794 -4.073673148962472 -4.699289364618591 9.649333205756863 0 0 0
356 119 1 0.5897 1.1422828239496567 -7.105679897468695 10.11166373958677 0 0 0
359 120 1 0.5897 -4.6790036008891525 -3.156616313830071 8.944296156685324 0 0 0
335 112 1 0.5897 -4.607708822320068 -5.489471346584182 9.730892850437376 0 0 0
357 119 1 0.5897 1.2953920949118523 -6.964134632850197 8.612230314416887 0 0 0
657 219 1 0.5897 -0.3227369080129545 -7.202461958434675 11.949539770382206 0 0 0
793 265 2 -1.1794 -2.057443053817792 -5.944385186319867 15.608541107907849 0 0 0
795 265 1 0.5897 -2.7466121322238095 -5.420242604935792 15.200540766070487 0 0 0
803 268 1 0.5897 -2.976485114579832 -2.880726688591511 14.844399815016864 0 0 0
655 219 2 -1.1794 -0.3860597774741681 -7.495495403889073 11.040513539088035 0 0 0
789 263 1 0.5897 -4.56825950554984 -4.556240381881289 14.033759396814752 0 0 0
718 240 2 -1.1794 -0.06547263649480861 -6.89034182424939 13.741907528340583 0 0 0
699 233 1 0.5897 -0.8423520448093367 -4.313103474991162 11.843409045396392 0 0 0
697 233 2 -1.1794 -1.4939331624275418 -4.428004776927278 12.535093570237288 0 0 0
677 226 1 0.5897 -2.4546079822522184 -5.9684708277898 12.09232885453755 0 0 0
676 226 2 -1.1794 -3.163409113120519 -6.607428509711801 12.166664875956211 0 0 0
698 233 1 0.5897 -1.0192713973742613 -4.242217459744268 13.345234373855885 0 0 0