LAMMPS data file via write_data, version 30 Jul 2021, timestep = 2000000

864 atoms
2 atom types
576 bonds
1 bond types
288 angles
1 angle types

0.04436793569491826 18.16320446430108 xlo xhi
-0.09068399879064337 23.719861798796018 ylo yhi
0.1332076435962417 22.0799881564051 zlo zhi

Masses

1 1.00794
2 15.9994

Atoms # full

707 1 1 0.5897 2.8156566049224407 1.8179227948651475 3.9851488024012203 0 0 0
706 1 2 -1.1794 2.6471676846641925 1.6384797870834757 3.060125582055716 0 0 0
3 1 1 0.5897 0.5694208568303795 4.214235559709469 2.6655061049413167 0 0 0
188 1 1 0.5897 2.771573869120331 -0.08566284795716692 2.5881177340846273 0 1 0
495 1 1 0.5897 8.03365554966684 1.8609386428327142 3.0505799534318663 0 0 0
708 1 1 0.5897 1.9481232437172995 2.2471188805064486 2.8210401978768465 0 0 0
29 1 1 0.5897 4.258019706408638 2.3704780421784033 2.7676645426622755 0 0 0
28 1 2 -1.1794 5.116210742044091 2.7914181108923377 2.715743464416744 0 0 0
668 1 1 0.5897 5.333320273061338 2.6863838402933444 0.9372862944200545 0 0 0
494 1 1 0.5897 6.553257287554619 2.0715487651034206 3.2876748800917603 0 0 0
30 1 1 0.5897 4.921155977092433 3.725551032836453 2.64158060368816 0 0 0
493 1 2 -1.1794 7.275467075205877 1.4772087214869527 3.491245656103823 0 0 0
846 1 1 0.5897 7.403622294245179 1.7320226758115846 5.409385605632347 0 0 0
748 1 2 -1.1794 9.072200233435728 2.828276844022376 1.73016753432205 0 0 0
1 1 2 -1.1794 0.6151292013437352 3.303528222501509 2.3744456227754998 0 0 0
20 1 1 0.5897 0.5257667912022637 2.9777391618887012 0.5492914667510116 0 0 0
819 1 1 0.5897 7.148453287233431 0.21501053611393584 2.4714406580729746 0 0 0
136 1 2 -1.1794 4.99719392220056 5.656149712543925 3.0696442459850033 0 0 0
137 1 1 0.5897 4.96213583236119 5.656249784993072 4.026194866340219 0 0 0
749 1 1 0.5897 9.075288910946668 3.7646510105767104 1.928535288871246 0 0 0
597 1 1 0.5897 0.3574861142387452 5.81101128823914 4.025757833110285 0 0 0
489 1 1 0.5897 2.694514909287053 1.0898276930281 6.272500639678206 0 0 0
84 1 1 0.5897 5.903482942137981 2.811454842669434 6.743848437613851 0 0 0
36 1 1 0.5897 1.0704589955079649 2.722128330703124 10.22139491224369 0 0 0
176 1 1 0.5897 8.830167058078983 2.702802368070779 10.131155348526724 0 0 0
355 1 2 -1.1794 7.410359854783341 1.8515072766085956 10.619133400078658 0 0 0
488 1 1 0.5897 2.067271046181417 2.465437281846989 6.35026325573536 0 0 0
674 1 1 0.5897 3.5866402247576548 2.1929091361727417 10.27627078724441 0 0 0
675 1 1 0.5897 3.0688730544158527 0.7703617641077636 10.278527704991628 0 0 0
356 1 1 0.5897 7.438292498756306 0.9334966194068213 10.349631752996984 0 0 0
673 1 2 -1.1794 2.8105670435650825 1.6701630469143185 10.47804352251576 0 0 0
274 1 2 -1.1794 4.927062714061281 3.0125780716053443 9.74859972395274 0 0 0
678 1 1 0.5897 5.213471522486485 4.467956458627602 10.468453361727232 0 0 0
35 1 1 0.5897 0.6587097894607417 4.17803956919084 10.27152561204465 0 0 0
785 1 1 0.5897 0.2999816266578369 3.050817835424309 7.766316394444569 0 0 0
82 1 2 -1.1794 5.130420958308137 3.3271510943952465 6.973420134159506 0 0 0
784 1 2 -1.1794 0.46627585716019343 3.073155766595091 6.823910814353169 0 0 0
276 1 1 0.5897 5.635763142735926 2.4960584524046716 10.132289199874409 0 0 0
34 1 2 -1.1794 0.43059251574710083 3.3403892514634266 9.868424697250125 0 0 0
275 1 1 0.5897 5.133590487233153 3.046831116936914 8.814577885138851 0 0 0
845 1 1 0.5897 7.61654830510139 0.951702934226939 6.689066295562082 0 0 0
686 1 1 0.5897 5.226178670366114 4.835460760127585 6.197893835969532 0 0 0
677 1 1 0.5897 6.190106289734975 5.6080438284323835 10.272865749432201 0 0 0
83 1 1 0.5897 4.40008869430629 2.8570589742223627 6.571062896139987 0 0 0
487 1 2 -1.1794 2.8147385353928285 1.9940298163619516 5.982388627143966 0 0 0
419 1 1 0.5897 8.953020568653361 2.646361577245918 6.871545816645282 0 0 0
676 1 2 -1.1794 5.399554877434656 5.362537057872086 10.75353845060108 0 0 0
183 1 1 0.5897 0.5800572726913327 4.970459500102894 6.17968785237574 0 0 0
844 1 2 -1.1794 7.465382234502066 1.8372588415435365 6.358770505433145 0 0 0
685 1 2 -1.1794 5.189880136128412 5.721585799542115 5.837859492666761 0 0 0
166 1 2 -1.1794 3.1045577516618055 1.8120374210836674 13.180871566297425 0 0 0
167 1 1 0.5897 3.048866554189949 1.540855909553561 12.264587913917424 0 0 0
466 1 2 -1.1794 0.9092869795109529 3.1634273766784857 13.984493995627451 0 0 0
459 1 1 0.5897 4.5896494332405 2.635384251528431 14.03927414988029 0 0 0
168 1 1 0.5897 2.3266761901718094 2.352519209531044 13.318868769072811 0 0 0
593 1 1 0.5897 7.63185565961112 0.9382803671091036 13.583394599192422 0 0 0
762 1 1 0.5897 5.224043410056428 4.915295193765452 13.88505175332925 0 0 0
592 1 2 -1.1794 7.8539094617878344 1.750874650329352 13.12890551365212 0 0 0
458 1 1 0.5897 6.103474829584551 2.614956242586062 14.045852085725267 0 0 0
761 1 1 0.5897 5.596864906382677 5.7858898515583475 12.704002370296053 0 0 0
457 1 2 -1.1794 5.34853337275891 2.931962302029937 14.541681454677565 0 0 0
594 1 1 0.5897 8.656651646544022 2.0522113202016072 13.55448670945126 0 0 0
468 1 1 0.5897 1.0584746866920685 3.1235927735692846 14.929181822492119 0 0 0
365 1 1 0.5897 0.8153927347647956 5.021584723954149 13.764586121505745 0 0 0
467 1 1 0.5897 0.0540708764441208 2.7520952888622197 13.859002584849879 0 0 0
760 1 2 -1.1794 5.455059383885724 5.813990145421691 13.650218547236838 0 0 0
357 1 1 0.5897 7.5432521504208525 1.827556395929038 11.566778926098717 0 0 0
71 1 1 0.5897 5.575307040763555 2.902894328597469 16.34809011334513 0 0 0
289 1 2 -1.1794 3.121684455660259 1.7170308015494598 18.08689117053072 0 0 0
669 1 1 0.5897 4.613938805861134 2.158213012175663 21.66118653630359 0 0 0
667 1 2 -1.1794 5.391029799188206 2.6486122394500633 21.929352524521832 0 0 0
70 1 2 -1.1794 5.458308540275962 2.8187563842147676 17.294375937992022 0 0 0
41 1 1 0.5897 6.707188240260275 1.615186004601335 21.10968897073689 0 0 0
569 1 1 0.5897 2.2568226322835554 2.2255933555695884 21.11245441948173 0 0 0
570 1 1 0.5897 3.0317430259376663 1.6755388415914363 19.93392312025921 0 0 0
568 1 2 -1.1794 2.999046575564215 1.6633372806669884 20.890482929693 0 0 0
756 1 1 0.5897 7.059581057060788 1.7511214022917094 17.753036276902343 0 0 0
72 1 1 0.5897 4.6350562196464375 2.3403719208319558 17.392819371018355 0 0 0
134 1 1 0.5897 1.027749932998908 4.0144631958533274 16.964457111980934 0 0 0
279 1 1 0.5897 4.376257987171496 5.748853040861204 17.630819120722187 0 0 0
42 1 1 0.5897 7.544627821371059 0.36306390904510455 20.958924871471616 0 0 0
571 1 2 -1.1794 0.6963222158745835 5.452852113069358 17.916223233729035 0 0 0
143 1 1 0.5897 5.2491102509565515 4.356630387102442 21.18981587463025 0 0 0
646 1 2 -1.1794 0.6244637818297053 5.5074245353068845 20.71530165017343 0 0 0
19 1 2 -1.1794 0.6002466658513611 2.942010470265678 21.54244144635627 0 0 0
291 1 1 0.5897 2.529212781142094 2.19956652189083 17.51036484508318 0 0 0
754 1 2 -1.1794 7.958179064285759 1.454176897315635 17.896762773295137 0 0 0
40 1 2 -1.1794 7.517584686773075 1.2890824983430857 20.7182730048389 0 0 0
755 1 1 0.5897 8.039478020971702 1.3870623203872652 18.84813344191091 0 0 0
290 1 1 0.5897 3.05906782468803 0.8092828684139917 17.789847491816708 0 0 0
278 1 1 0.5897 5.265516592343609 4.53729276577247 17.813150038110827 0 0 0
21 1 1 0.5897 0.7986974330329142 3.8418147312985127 21.283337368446198 0 0 0
648 1 1 0.5897 0.6307356915923185 5.411437097758784 19.76295146990659 0 0 0
135 1 1 0.5897 0.24405962982109208 2.7191973351242935 16.969386865144145 0 0 0
142 1 2 -1.1794 5.036362104642146 5.251450895099791 20.924857167883914 0 0 0
144 1 1 0.5897 5.0973373224755365 5.239808421857188 19.969671326148344 0 0 0
133 1 2 -1.1794 1.0712637464133778 3.1023649840067655 16.67745456899474 0 0 0
277 1 2 -1.1794 5.134440675025164 5.433495908942798 18.1227486971907 0 0 0
360 1 1 0.5897 8.973828148317917 2.5932495992661697 20.697206866175804 0 0 0
363 1 1 0.5897 5.037088941367276 10.965992445177223 0.7511082814713493 0 0 1
123 1 1 0.5897 2.681396348189446 8.66448551178007 3.1933867207565783 0 0 0
121 1 2 -1.1794 2.705663348906016 9.587128624376886 3.446938380816964 0 0 0
122 1 1 0.5897 2.6858255164180274 9.573647655883335 4.403846962391227 0 0 0
44 1 1 0.5897 1.2846026968952795 10.138484176447866 2.469897825310804 0 0 0
217 1 2 -1.1794 4.936317008847 11.020599121791482 2.4297145283182124 0 0 0
416 1 1 0.5897 6.5148210309401735 6.808884359506621 2.675785792545683 0 0 0
254 1 1 0.5897 2.985221666132209 7.255807510257942 1.363909276363321 0 0 0
219 1 1 0.5897 4.27882175796779 10.529158257548945 2.9221021649824177 0 0 0
43 1 2 -1.1794 0.5639411301364983 10.636556413134432 2.0840968710879215 0 0 0
218 1 1 0.5897 5.72566138701333 10.481304183848758 2.4787489905988083 0 0 0
253 1 2 -1.1794 2.8062027865771064 6.972441079977585 2.2604981552321433 0 0 0
66 1 1 0.5897 7.638156562986103 9.896400559982604 3.6992114538508183 0 0 0
65 1 1 0.5897 7.377788633034425 8.933678859754806 2.560276905941291 0 0 0
64 1 2 -1.1794 7.47201113712424 9.865642240888873 2.757041669455718 0 0 0
415 1 2 -1.1794 7.276948602150401 7.19788729870534 2.246695468663595 0 0 0
773 1 1 0.5897 9.059615103691488 10.442494300587144 2.2763083389710514 0 0 0
255 1 1 0.5897 1.9224229769776995 6.606452251963777 2.224584471554084 0 0 0
417 1 1 0.5897 8.005904626557781 6.626118426530069 2.487500265625217 0 0 0
45 1 1 0.5897 0.673037714683217 11.522749716181988 2.429018288013364 0 0 0
138 1 1 0.5897 4.238413910625298 6.174508738542046 2.8016376391563833 0 0 0
595 1 2 -1.1794 0.489982025884745 5.875085862496903 3.0799468053888535 0 0 0
712 1 2 -1.1794 7.736471932497447 9.516594584194362 5.452392685336375 0 0 0
396 1 1 0.5897 0.8421752972509984 10.968588625401484 0.21338950581017713 0 0 0
162 1 1 0.5897 7.507758847105862 6.951362153660714 0.3127334717454744 0 0 1
257 1 1 0.5897 3.196884242499871 8.41655213240275 10.042040318821769 0 0 0
12 1 1 0.5897 3.101312693135494 7.921957090191656 6.666482249625796 0 0 0
112 1 2 -1.1794 0.6513184212955981 5.91211281112802 10.822101207018491 0 0 0
146 1 1 0.5897 7.002622345078579 6.599935844622038 6.542341672105524 0 0 0
580 1 2 -1.1794 5.743900511753227 11.072352650605902 9.251685187975834 0 0 0
13 1 2 -1.1794 1.0170795041203462 10.774520462597359 9.708521273940129 0 0 0
258 1 1 0.5897 4.256139250420755 9.489899100502342 9.908543508234814 0 0 0
15 1 1 0.5897 1.897005058423913 10.428670697626899 9.8584113903825 0 0 0
14 1 1 0.5897 1.0120174232347892 11.620107128612384 10.156981126467192 0 0 0
794 1 1 0.5897 1.945039410328464 10.034216019561896 6.528084691945275 0 0 0
550 1 2 -1.1794 0.6872240086736187 11.144244621047227 6.984384578822764 0 0 0
649 1 2 -1.1794 3.0429212793935414 6.622326339887585 9.868435031832107 0 0 0
822 1 1 0.5897 8.511376590312507 9.685284996025608 10.306972291217347 0 0 0
820 1 2 -1.1794 7.755020258330599 9.131330956236 10.500374503054148 0 0 0
581 1 1 0.5897 6.428108792350584 10.48878982864385 9.579685369870097 0 0 0
578 1 1 0.5897 6.029183981737697 10.336254814134307 5.982562031821545 0 0 0
147 1 1 0.5897 7.597865378162811 7.089438382454917 7.845396658965454 0 0 0
795 1 1 0.5897 3.4480717338746505 10.058966736352525 6.708099760460186 0 0 0
11 1 1 0.5897 2.2173713163858655 6.693168062927449 6.641690535319267 0 0 0
256 1 2 -1.1794 3.3586354508737952 9.345179293925886 10.208316110321606 0 0 0
650 1 1 0.5897 2.916477293596576 6.611447089796453 8.919687805346193 0 0 0
526 1 2 -1.1794 7.56114255596381 6.702103860103695 9.552345166134113 0 0 0
582 1 1 0.5897 5.670417634255998 10.857262662757906 8.321871008176075 0 0 0
145 1 2 -1.1794 7.7753623095399025 7.03176834398203 6.906572885724617 0 0 0
687 1 1 0.5897 4.478484572564869 6.146392322097114 6.317159909862771 0 0 0
577 1 2 -1.1794 5.31198240470717 10.707749419508954 6.496271285426901 0 0 0
527 1 1 0.5897 7.714054407697016 7.507194983308941 10.046946102741 0 0 0
551 1 1 0.5897 0.9098596657672362 11.264970128363638 7.907466528489675 0 0 0
10 1 2 -1.1794 3.0210198078516557 7.03987071972375 7.029308854923566 0 0 0
651 1 1 0.5897 3.872152121016805 6.164136856752446 10.00531357350308 0 0 0
528 1 1 0.5897 8.3254740602471 6.156947035288692 9.739112449660185 0 0 0
793 1 2 -1.1794 2.7465375842182884 9.581996365332405 6.264697170061407 0 0 0
714 1 1 0.5897 7.6532810424702955 8.66880110587489 5.888874071794983 0 0 0
114 1 1 0.5897 1.492152702014145 6.147688714802521 10.429899190778308 0 0 0
713 1 1 0.5897 8.463305530876767 9.947699476546306 5.902010630416355 0 0 0
579 1 1 0.5897 5.304769323070922 11.635813096994315 6.262171037373697 0 0 0
181 1 2 -1.1794 0.480451557110159 5.8719269981242705 5.873768700544922 0 0 0
476 1 1 0.5897 6.94770714990687 9.61198613139816 13.412210498437009 0 0 0
332 1 1 0.5897 3.2469946951990614 8.160136509537823 13.699988255866494 0 0 0
797 1 1 0.5897 2.970846269375211 9.796801147552252 12.180896375253317 0 0 0
796 1 2 -1.1794 3.1627222034191105 9.949801620996855 13.106108603923609 0 0 0
798 1 1 0.5897 2.314753440987367 10.164938714873012 13.494650337695255 0 0 0
723 1 1 0.5897 5.379067932135407 10.899660043189566 15.022347850137463 0 0 0
827 1 1 0.5897 7.061726805814942 6.451242839479275 14.261845980788529 0 0 0
331 1 2 -1.1794 3.196422944256482 7.247260291289484 13.983269279103633 0 0 0
477 1 1 0.5897 7.880299094339901 8.479419075066758 13.785707760218886 0 0 0
259 1 2 -1.1794 0.583671801777693 10.377999210820292 14.249046236727073 0 0 0
261 1 1 0.5897 0.6887881551028361 10.469733463757375 15.196021068866916 0 0 0
721 1 2 -1.1794 5.561671334541382 10.676350296392373 14.10964805489882 0 0 0
722 1 1 0.5897 4.700848871625173 10.504751752316055 13.72775673102458 0 0 0
333 1 1 0.5897 4.042547495570629 6.872722784129445 13.738150262246114 0 0 0
826 1 2 -1.1794 7.932144138756892 6.801421403730112 14.45171381306 0 0 0
828 1 1 0.5897 7.924246254501047 6.965741430980179 15.394661919102917 0 0 0
475 1 2 -1.1794 7.810082477656022 9.245594442395335 13.216285118689143 0 0 0
225 1 1 0.5897 3.1649781838992754 6.863223748866095 15.970805509590406 0 0 0
113 1 1 0.5897 0.7481836599776436 6.133373299194072 11.74832135695827 0 0 0
366 1 1 0.5897 1.4308775707009553 6.404574712937553 13.780905071745721 0 0 0
821 1 1 0.5897 7.807892156637185 8.97364039253634 11.443018890646444 0 0 0
364 1 2 -1.1794 0.67532106222153 5.916096670327907 13.454120820830454 0 0 0
689 1 1 0.5897 3.8408844748933717 9.957868568008765 20.955308428676673 0 0 0
680 1 1 0.5897 4.6605953392043835 11.154498106981668 17.11398672051088 0 0 0
626 1 1 0.5897 3.338609025064485 9.56478113793042 18.578615791963443 0 0 0
6 1 1 0.5897 3.09399295229356 7.7123353872964895 21.046472533489514 0 0 0
5 1 1 0.5897 3.7330144076424925 6.359200383510475 21.275700705749273 0 0 0
520 1 2 -1.1794 7.442892315074457 6.978362594667341 17.179749897426547 0 0 0
361 1 2 -1.1794 5.223216648871426 10.783383360944136 21.776889222830285 0 0 0
690 1 1 0.5897 2.3585264397086587 9.8093560701262 20.685723345359776 0 0 0
711 1 1 0.5897 8.856949840021485 5.940104928262136 17.53192270413365 0 0 0
688 1 2 -1.1794 3.2155484326685917 9.494860120177698 20.39779421168553 0 0 0
7 1 2 -1.1794 7.453911513692361 9.744573661670216 17.731347426299443 0 0 0
161 1 1 0.5897 6.524257972509733 6.3347501747465325 21.28768300229838 0 0 0
627 1 1 0.5897 2.586520383704163 10.354475549289312 17.528551399860106 0 0 0
140 1 1 0.5897 6.5812447020900935 9.954611863487612 21.07262152342824 0 0 0
287 1 1 0.5897 8.921078075452721 10.680725188788843 21.072408896284195 0 0 0
394 1 2 -1.1794 0.9560156241691525 11.123741826316671 21.2225136502029 0 0 0
679 1 2 -1.1794 5.390949805423123 11.617172106739792 16.703153028020708 0 0 0
4 1 2 -1.1794 2.9315529882034426 6.8556667769396045 21.441399787126286 0 0 0
462 1 1 0.5897 8.67072895117364 6.172395794607105 20.583970244959595 0 0 0
625 1 2 -1.1794 3.3932124673004704 9.858773966890515 17.66933312436484 0 0 0
447 1 1 0.5897 0.32760264172875037 10.46293512943647 17.19147528041539 1 0 0
160 1 2 -1.1794 7.182002755484682 7.026120742719561 21.36255896540635 0 0 0
141 1 1 0.5897 7.358298764852307 8.683164042835788 20.805407304825202 0 0 0
8 1 1 0.5897 7.388834113475871 9.831308301851003 18.6823770047786 0 0 0
139 1 2 -1.1794 7.366070880575112 9.62496770582 20.634826134702834 0 0 0
445 1 2 -1.1794 1.0883202572782478 10.914736032306516 16.82602235289084 0 0 0
9 1 1 0.5897 6.635001724059557 10.113481825538793 17.400130100038943 0 0 0
223 1 2 -1.1794 3.0368461023431834 6.8065664247461415 16.917691796423135 0 0 0
224 1 1 0.5897 3.1619046649759217 7.702372502136399 17.23081603268046 0 0 0
521 1 1 0.5897 6.63183454820438 6.649659431611847 17.567603302767168 0 0 0
522 1 1 0.5897 7.466030818658003 7.904394571329007 17.420742023816125 0 0 0
647 1 1 0.5897 1.4770466449038262 5.889538091113471 20.923604096118105 0 0 0
572 1 1 0.5897 1.5072219471494281 5.887134337799598 17.651353542553217 0 0 0
446 1 1 0.5897 1.0540834840794848 11.79102942840526 17.20958664621549 0 0 0
362 1 1 0.5897 5.511198374996051 11.623184036600062 21.41914767344528 0 0 0
246 1 1 0.5897 9.068538866916837 10.63117163238356 17.121563398289204 0 0 0
395 1 1 0.5897 0.15880450876709024 10.775539676051725 20.823120740240796 0 0 0
557 1 1 0.5897 1.9616752056404552 14.538357761045743 2.380463967960598 0 0 0
479 1 1 0.5897 7.729732321625199 14.798886277757076 2.443059307932979 0 0 0
293 1 1 0.5897 2.570085370776308 16.664669536178792 2.818849217660867 0 0 0
558 1 1 0.5897 2.9782991714354226 14.80239710956475 1.290156601653891 0 0 0
556 1 2 -1.1794 2.7326055865179812 15.06778943221736 2.1764243416346267 0 0 0
200 1 1 0.5897 5.171143450609434 13.38731948623364 4.852580685640275 0 0 0
173 1 1 0.5897 4.254623185054242 14.024027853297602 2.6058716187759052 0 0 0
174 1 1 0.5897 5.048489561479727 12.767342232113412 2.8928357831982283 0 0 0
317 1 1 0.5897 7.308742280544576 15.288850607040215 0.20705315648833308 0 0 0
480 1 1 0.5897 6.225950507946072 14.645601099473687 2.357405078429364 0 0 0
172 1 2 -1.1794 5.046061841063485 13.712333606564746 3.044929481759297 0 0 0
478 1 2 -1.1794 6.958922838613675 15.138132735042497 1.9879962111779497 0 0 0
449 1 1 0.5897 7.191259189408416 17.124010357416388 2.509311200385081 0 0 0
373 1 2 -1.1794 0.7896454731541016 13.078560070226711 2.9468866950565262 0 0 0
374 1 1 0.5897 0.9461403769560744 13.257220833751495 3.8741669087962625 0 0 0
294 1 1 0.5897 2.3953204449587195 17.571739756429345 4.018232438592552 0 0 0
308 1 1 0.5897 7.130527337946557 17.230404203979113 4.659386440253402 0 0 0
292 1 2 -1.1794 2.468524443069362 17.584336511208264 3.063917049103911 0 0 0
375 1 1 0.5897 0.0962960069738017 13.689910108789254 2.698369837429427 0 0 0
307 1 2 -1.1794 7.265613515539715 17.057951019079823 5.591181193355278 0 0 0
655 1 2 -1.1794 0.976829011283062 13.548123934653951 5.5598781568796 0 0 0
184 1 2 -1.1794 7.178947481756926 17.3320115767226 9.840506604452957 0 0 0
811 1 2 -1.1794 2.797216430484495 15.410294497853934 9.56400939531221 0 0 0
812 1 1 0.5897 3.5655110447897362 14.89927760928449 9.818690047755354 0 0 0
813 1 1 0.5897 2.0572101507568776 14.821720791395526 9.713090223293577 0 0 0
17 1 1 0.5897 3.1085184449886842 15.166998875130112 7.656654787179039 0 0 0
384 1 1 0.5897 2.930538707719711 17.13920055637793 10.083575477014703 0 0 0
552 1 1 0.5897 0.8088465308605617 12.00926709109556 6.593068556859293 0 0 0
518 1 1 0.5897 7.4099064696244366 15.325684695518987 6.1501124587734814 0 0 0
16 1 2 -1.1794 3.0655782967169363 15.060553562581998 6.706371518538136 0 0 0
517 1 2 -1.1794 7.559259538350363 14.432063397435302 6.458821883167036 0 0 0
454 1 2 -1.1794 5.207707471173801 14.01081260636154 10.32935496845091 0 0 0
18 1 1 0.5897 3.790216859892321 14.470864914573616 6.497961696115392 0 0 0
456 1 1 0.5897 5.127248540177455 13.089742204608337 10.081724035368191 0 0 0
186 1 1 0.5897 7.4483306527471305 16.42539110560091 9.693426837031042 0 0 0
201 1 1 0.5897 5.976042444675727 13.819020724786329 6.059942436466336 0 0 0
376 1 2 -1.1794 7.57811128984559 14.728784007467103 9.18495762091673 0 0 0
378 1 1 0.5897 7.452838993404543 14.502646876611875 8.263309395428832 0 0 0
377 1 1 0.5897 6.810180437948244 14.366916247184923 9.627378500969357 0 0 0
766 1 2 -1.1794 0.8113510604580428 13.679500936189575 10.301181691259734 0 0 0
519 1 1 0.5897 8.37765381686519 14.1667965333201 6.039066024927154 0 0 0
309 1 1 0.5897 8.012549522770296 17.60646882010277 5.830981212992577 0 0 0
239 1 1 0.5897 2.7613077670567585 16.87054227844891 6.289597319138522 0 0 0
656 1 1 0.5897 1.7276468900850193 13.854508285091079 6.068482683502291 0 0 0
199 1 2 -1.1794 5.189217509393473 13.335470304472244 5.808204801129694 0 0 0
238 1 2 -1.1794 2.566918467928265 17.766994577695655 6.016203656391616 0 0 0
657 1 1 0.5897 0.27403776622049536 14.160859655376095 5.77644327852063 1 0 0
232 1 2 -1.1794 3.044455674525008 14.341682283575512 13.698139072949168 0 0 0
234 1 1 0.5897 2.969226960697735 14.321996534427017 14.65217084892935 0 0 0
606 1 1 0.5897 3.522659816001897 16.200471036440554 13.316143380136332 0 0 0
637 1 2 -1.1794 0.8208186463315089 12.990857966679245 13.000681589552125 0 0 0
639 1 1 0.5897 1.5337898445521476 13.524499114876358 13.35161722362898 0 0 0
233 1 1 0.5897 3.763147650925502 13.740751419927319 13.501620432943994 0 0 0
427 1 2 -1.1794 5.460209612068106 13.11424169289456 13.05663497976738 0 0 0
428 1 1 0.5897 5.633099465911004 12.244757209100975 13.417577293090279 0 0 0
429 1 1 0.5897 6.209736446542908 13.641914927171747 13.332427485758378 0 0 0
297 1 1 0.5897 8.21815252912043 14.582997394095251 13.199833437615501 0 0 0
295 1 2 -1.1794 7.401786987263859 15.046122380421716 13.38783583223983 0 0 0
270 1 1 0.5897 7.618150598646965 16.826125495607073 13.00517633464818 0 0 0
296 1 1 0.5897 7.387734107816639 15.130336681974594 14.34121080599871 0 0 0
638 1 1 0.5897 0.8155548438028576 12.206629441104736 13.5494381418134 0 0 0
269 1 1 0.5897 7.432568417240002 17.553158741221203 11.690310701536093 0 0 0
268 1 2 -1.1794 7.6122543236868045 17.70176897467664 12.618683905358246 0 0 0
455 1 1 0.5897 5.22154209179874 14.001692917564329 11.286408926868246 0 0 0
605 1 1 0.5897 3.252572182919621 17.300942346355384 12.312257755123163 0 0 0
767 1 1 0.5897 0.6513582099180992 13.610065711776564 11.242359817936691 0 0 0
49 1 2 -1.1794 7.503166405732095 15.210257817777006 16.375131432379234 0 0 0
823 1 2 -1.1794 2.831647932312517 14.845209643443718 16.262618734879183 0 0 0
604 1 2 -1.1794 3.6332428127674476 17.140803005559647 13.175782258084432 0 0 0
51 1 1 0.5897 8.208375924423482 14.573489302522196 16.49112680850545 0 0 0
53 1 1 0.5897 0.8844252939908057 13.693273419744246 18.53278151350819 0 0 0
683 1 1 0.5897 6.423054111124481 14.235058722712338 20.580173729381087 0 0 0
665 1 1 0.5897 2.416468383356246 14.369168997760704 21.04812112712694 0 0 0
318 1 1 0.5897 7.403612140391884 16.234133296114557 20.975130625853524 0 0 0
452 1 1 0.5897 0.730725248392824 12.808614088543848 20.701767679806046 0 0 0
681 1 1 0.5897 5.3521460329120805 12.500450850154278 17.069859434555475 0 0 0
666 1 1 0.5897 3.0435993558232712 15.742699207334264 21.15729672915586 0 0 0
54 1 1 0.5897 0.2121636575915602 13.856885145547974 17.18622726543432 0 0 0
716 1 1 0.5897 2.998097607582973 17.3901149287653 19.246551903205507 0 0 0
117 1 1 0.5897 8.804962733294035 13.95876858373287 20.645172852755586 0 0 0
664 1 2 -1.1794 3.203017242907451 14.819942075329296 21.355460553459814 0 0 0
316 1 2 -1.1794 7.566090918385233 15.326669669047366 21.232636478729333 0 0 0
126 1 1 0.5897 5.829174355078254 14.551728580155023 17.04041253142637 0 0 0
52 1 2 -1.1794 0.9725335009430608 13.457854534163758 17.609186905868526 0 0 0
451 1 2 -1.1794 0.7486844037869907 13.745647015925034 20.507329115238008 0 0 0
684 1 1 0.5897 4.920227517823868 14.083088259894428 20.682851101295412 0 0 0
584 1 1 0.5897 2.852438848827468 16.49969999604744 17.071055111088796 0 0 0
124 1 2 -1.1794 5.090781576179436 14.228427368618112 17.556682024084814 0 0 0
125 1 1 0.5897 5.437341952982942 14.14505729012268 18.445042544235434 0 0 0
682 1 2 -1.1794 5.714169831626457 13.607777341870712 20.43788560687046 0 0 0
583 1 2 -1.1794 2.738458972482268 17.38034068159744 17.428316568917424 0 0 0
715 1 2 -1.1794 2.91009840589981 17.439300401238285 20.198419328725222 0 0 0
825 1 1 0.5897 2.077196349415501 14.416187201853187 16.666364098087506 0 0 0
824 1 1 0.5897 3.579824545150726 14.557498649427977 16.785815658916803 0 0 0
50 1 1 0.5897 7.7890549193742125 15.977743745683645 16.870568019304464 0 0 0
696 1 1 0.5897 1.2464252371892015 21.863595245551693 2.400443431977975 0 0 0
694 1 2 -1.1794 0.33421711406630245 21.62180481702451 2.560953224307536 0 0 0
448 1 2 -1.1794 7.278097601840982 17.94746437488844 2.9894756500239317 0 0 0
344 1 1 0.5897 1.1547757154348564 18.377227057975766 2.28236781446714 0 0 0
818 1 1 0.5897 7.758602276677836 22.649012417668224 2.3146278688526984 0 0 0
266 1 1 0.5897 4.402544143489454 21.96668467965263 2.961201371844333 0 0 0
226 1 2 -1.1794 4.9815302826869035 19.09172854083272 2.1091407777593076 0 0 0
187 1 2 -1.1794 2.9256767799225987 22.801782895254334 2.3873709644758914 0 0 0
228 1 1 0.5897 5.053075339221965 19.989619971255046 2.432946955981491 0 0 0
321 1 1 0.5897 8.749856196794877 18.683538711243152 2.592501277310212 0 0 0
450 1 1 0.5897 6.464981475358632 18.418492470235584 2.8070818746653954 0 0 0
817 1 2 -1.1794 7.099541249720514 23.232227818619485 1.9381473079489453 0 0 0
189 1 1 0.5897 3.0532433511168797 22.780475419102267 1.4389510663985796 0 0 0
265 1 2 -1.1794 5.264184106569222 21.57712095428507 3.109966552179279 0 0 0
267 1 1 0.5897 5.841098825256022 22.027686370270068 2.4931745795560185 0 0 0
345 1 1 0.5897 0.630081647170443 18.84080479722234 0.9401088282338391 0 0 0
227 1 1 0.5897 4.109174255202301 18.80712060657642 2.381713016615134 0 0 0
249 1 1 0.5897 5.474796378697935 21.5184138702745 5.086520748484253 0 0 0
695 1 1 0.5897 0.24807598907121786 20.74629723159343 2.183804676851364 0 0 0
343 1 2 -1.1794 0.457735747553865 18.895448451383487 1.8800721043647186 0 0 0
413 1 1 0.5897 0.3696130210032004 21.83284051802422 4.575831384935383 0 0 0
412 1 2 -1.1794 0.5143706797157632 21.77529712922 5.520280585687445 0 0 0
591 1 1 0.5897 9.089558954718395 21.47896300091655 4.905861004475906 0 0 0
602 1 1 0.5897 4.950182987977916 18.916795127220993 0.3623390932830546 0 0 0
498 1 1 0.5897 7.164567658041731 22.55444830524703 0.15454282877964687 0 0 0
94 1 2 -1.1794 0.7211264250539428 21.737194455897864 10.20199335360526 0 0 0
404 1 1 0.5897 1.2137388486663223 18.72468286310869 9.494576291783629 0 0 0
33 1 1 0.5897 6.554343012761878 22.496573865783496 6.6875228041839465 0 0 0
385 1 2 -1.1794 5.12199848106671 18.618908677470706 6.101365716896206 0 0 0
39 1 1 0.5897 3.7628641711349475 22.320311001268095 9.82027535609811 0 0 0
555 1 1 0.5897 4.794187225277949 20.63272731213908 10.036368537451022 0 0 0
86 1 1 0.5897 7.257693557228265 23.035685591641133 8.881044198044778 0 0 0
702 1 1 0.5897 1.9378973836406008 22.580528343103317 6.236411011959778 0 0 0
383 1 1 0.5897 3.6307228290299927 18.477246344210364 10.189541684788164 0 0 0
38 1 1 0.5897 2.2537048675175657 22.263010363145057 9.713794432221354 0 0 0
403 1 2 -1.1794 0.41152085154783574 19.172922644358863 9.226603499052334 0 0 0
32 1 1 0.5897 8.050351516632652 22.27173890290377 6.747074544858491 0 0 0
340 1 2 -1.1794 0.1720787338724012 19.175428315545496 6.572351118338926 0 0 0
247 1 2 -1.1794 5.3559819083322155 21.39794929444136 6.028639493909665 0 0 0
553 1 2 -1.1794 4.9296173497860485 21.44385687622333 10.526167362617139 0 0 0
37 1 2 -1.1794 3.02190313915798 22.704639239772753 9.35170051912648 0 0 0
31 1 2 -1.1794 7.348400148296176 22.79931133935972 7.128112121024123 0 0 0
95 1 1 0.5897 0.11051541515126218 22.424502601343377 9.935550044257376 1 0 0
85 1 2 -1.1794 7.2209707093266715 23.08749152378543 9.836132868919877 0 0 0
101 1 1 0.5897 5.745147912074826 18.556539575985383 9.188104063815976 0 0 0
87 1 1 0.5897 7.931395900494005 22.519685667700664 10.134780516639934 0 0 0
414 1 1 0.5897 0.5217942785227154 20.836191041574033 5.705152196254321 0 0 0
701 1 1 0.5897 2.8079900901426362 22.660997169789532 7.4727749428189 0 0 0
102 1 1 0.5897 4.684711386122476 18.885849146289765 8.159001809533667 0 0 0
342 1 1 0.5897 0.16203350296968339 19.317437662682956 7.518898071700893 0 0 0
100 1 2 -1.1794 4.921409533568831 19.030849103151347 9.075067661989964 0 0 0
387 1 1 0.5897 5.390620775884748 19.535615311047245 6.040862507866936 0 0 0
700 1 2 -1.1794 2.811612900391129 22.83681351762163 6.531827426130216 0 0 0
554 1 1 0.5897 5.653410353147528 21.87856612707695 10.075125804836741 0 0 0
386 1 1 0.5897 5.941496747432221 18.125719574172926 6.06304850541837 0 0 0
341 1 1 0.5897 0.9091212968568007 18.582345882859585 6.426475056738228 0 0 0
382 1 2 -1.1794 2.886017760330874 17.983310744624617 10.532663890381654 0 0 0
405 1 1 0.5897 0.44901574350423007 20.01902117306009 9.67255345702376 0 0 0
240 1 1 0.5897 3.42510685212975 18.163219456369887 5.8651678175023605 0 0 0
185 1 1 0.5897 7.933971010288659 17.853777412617376 9.56853919625154 0 0 0
248 1 1 0.5897 4.488631024959164 21.760333226961954 6.209435869276272 0 0 0
350 1 1 0.5897 2.758422209494127 22.922097243539746 16.16780063101983 0 0 0
381 1 1 0.5897 1.277903508156618 21.780769581724996 13.59575759775939 0 0 0
738 1 1 0.5897 3.387599261902012 22.31491162006997 14.048290206205165 0 0 0
503 1 1 0.5897 1.986033645908742 18.27116707066005 13.420933207145273 0 0 0
765 1 1 0.5897 6.31602588058166 18.710032541003308 13.391023909851294 0 0 0
379 1 2 -1.1794 0.6285321986719036 21.32256592113206 13.062255160051585 0 0 0
787 1 2 -1.1794 6.816425493764157 23.213118295337708 14.10920682047334 0 0 0
764 1 1 0.5897 4.870224781247071 18.342679208955552 13.649582242037226 0 0 0
88 1 2 -1.1794 4.648466441621644 21.43498441726358 13.383010940054646 0 0 0
736 1 2 -1.1794 2.5839704032622324 22.76601574471418 14.307066346663424 0 0 0
763 1 2 -1.1794 5.539710694209375 18.987796457609292 13.877311541809727 0 0 0
89 1 1 0.5897 4.766202829791499 21.50040230382838 12.43533668144488 0 0 0