LAMMPS data file via write_data, version 30 Jul 2021, timestep = 16750000

864 atoms
2 atom types
576 bonds
1 bond types
288 angles
1 angle types

0.5879665591267944 17.619605840877103 xlo xhi
1.7840782126485468 21.84509958735936 ylo yhi
0.7173178288070634 21.495877971190836 zlo zhi

Masses

1 1.00794
2 15.9994

Pair Coeffs # lj/cut/tip4p/long/omp

1 0 0
2 0.21084 3.1668

Bond Coeffs # harmonic/omp

1 450 0.9572

Angle Coeffs # harmonic/omp

1 55 104.52

Atoms # full

10 1 2 -1.1794 4.476656388482458 5.416472006926697 0.7310310839023756 1 6 8
418 1 2 -1.1794 2.8042736218932927 3.4590861320776884 1.8914363661703055 -6 0 5
504 1 1 0.5897 3.539188422396611 3.9453256833307306 3.676734353384764 -9 4 9
362 1 1 0.5897 3.7534293632863713 6.497806289328979 2.1728874937663294 -4 -2 -1
420 1 1 0.5897 2.5786821799546233 2.751714729893261 1.2872789483027072 -6 0 5
419 1 1 0.5897 2.0648608458475515 4.064694085381603 1.8387066736120194 -6 0 5
184 1 2 -1.1794 2.17704542581948 6.060820146955166 5.73475688209267 -4 9 2
503 1 1 0.5897 3.2226554589133376 4.807580711068053 4.880200502412971 -9 4 9
502 1 2 -1.1794 3.6885603414280936 4.012970558324306 4.619809479014918 -9 4 9
11 1 1 0.5897 3.947498877703935 4.7375061283320274 1.149685599233969 1 6 8
137 1 1 0.5897 1.1509824552985406 5.8861516238964295 0.7333177047784764 6 -12 -1
185 1 1 0.5897 1.3343700356461339 5.977534147630828 5.288400569144342 -4 9 2
136 1 2 -1.1794 0.8747632973058934 5.264289262867434 1.4065698932713853 6 -12 -1
611 1 1 0.5897 3.5229316935639163 2.5310431787107612 5.631073184998322 2 4 -2
435 1 1 0.5897 2.74127336460808 4.859877323383756 7.143086540774803 4 9 0
616 1 2 -1.1794 3.1153828943882407 2.794584139759605 11.04509128512544 3 1 -1
325 1 2 -1.1794 0.6781241499846082 6.441726115189282 8.864644273349843 5 -5 -3
433 1 2 -1.1794 3.1083254941923095 4.640444145985878 7.999479674147138 4 9 0
796 1 2 -1.1794 2.1068550710919154 1.885786404437934 8.429108975830545 -3 -2 -3
617 1 1 0.5897 2.4475517642739666 3.2471809069959097 10.529893502149276 3 1 -1
434 1 1 0.5897 2.810182140889584 3.746284222790629 8.166395112463604 4 9 0
396 1 1 0.5897 4.634107908851509 5.62255169531373 7.198708573835734 3 3 2
559 1 2 -1.1794 4.583974068560552 6.155203402084127 10.890717069376846 4 1 1
468 1 1 0.5897 4.2474053157769465 2.236327803662599 9.708779166440818 2 -4 1
326 1 1 0.5897 1.1951330770476445 5.652884403349742 8.701210054376602 5 -5 -3
560 1 1 0.5897 3.710697939884155 5.795650681225597 11.046864854567907 4 1 1
410 1 1 0.5897 1.269197201559113 5.2092181952028715 10.931752126750752 8 3 -5
851 1 1 0.5897 0.9750583383942595 2.514508490168523 13.404765143673739 -8 -4 -3
156 1 1 0.5897 4.6938325509415195 2.2041000482936672 15.203678582596417 7 2 -4
852 1 1 0.5897 2.268146065677823 2.8443509678757932 14.119686785238562 -8 -4 -3
495 1 1 0.5897 1.8797954155182337 6.139086971603603 13.301627454098364 -6 -2 0
238 1 2 -1.1794 3.2898881126877715 3.875592941160942 15.388241167705532 -7 -8 2
850 1 2 -1.1794 1.914434015482422 2.330902267406806 13.393377138014458 -8 -4 -3
493 1 2 -1.1794 1.830824998874809 6.2664179097877115 14.249081310442406 -6 -2 0
494 1 1 0.5897 1.0580362715868639 5.769855147966039 14.518353576452645 -6 -2 0
618 1 1 0.5897 2.7573356165513614 2.768799114121541 11.932468835494626 3 1 -1
239 1 1 0.5897 3.1031210221860124 4.63451285452237 14.835573815670841 -7 -8 2
409 1 2 -1.1794 1.9557880827164402 5.602387994684954 11.47052783554744 8 3 -5
240 1 1 0.5897 3.9985718908141035 4.165592870789857 15.962655634543149 -7 -8 2
738 1 1 0.5897 4.58943667089783 3.3967608803667626 11.987442003732317 -1 -1 -2
411 1 1 0.5897 1.850440231308415 6.545225527604304 11.343130729535206 8 3 -5
538 1 2 -1.1794 3.4545004252115463 5.382395706261082 19.02058601076267 3 -2 5
540 1 1 0.5897 4.083073112255258 5.394708934417999 18.298773982124487 3 -2 5
21 1 1 0.5897 0.6471422714295275 2.3632552214583225 20.555949884247745 -6 -6 -7
539 1 1 0.5897 2.6722862348311462 5.804152532587399 18.664871253973928 3 -2 5
348 1 1 0.5897 3.6665557806503815 3.621297081630096 19.33505485337519 -3 2 -4
463 1 2 -1.1794 0.9315431888221242 1.9172178242394038 16.31758209128489 7 4 -6
12 1 1 0.5897 4.189815309344873 5.415267581384725 20.596358277955254 1 6 7
346 1 2 -1.1794 3.9495893916086726 2.7360232741155146 19.564085987655055 -3 2 -4
464 1 1 0.5897 0.8588010101238943 2.5396934121136363 17.041121868905876 7 4 -6
569 1 1 0.5897 3.9211485740469647 2.039121806534086 17.934116531737857 5 -1 2
570 1 1 0.5897 3.095056469676264 1.8720639407494346 16.676456124348878 5 -1 2
363 1 1 0.5897 2.8787263341087845 7.615766582770381 2.6993058635708516 -4 -2 -1
124 1 2 -1.1794 4.481369823237646 8.087002038236582 5.337107137731095 0 4 1
567 1 1 0.5897 2.860624933257306 11.532416876240553 1.252921265280865 2 11 -9
127 1 2 -1.1794 1.5169166979803868 8.72862697501721 2.6688430075030336 -4 0 0
565 1 2 -1.1794 2.0982973629903237 11.378207712004153 1.8109324056615852 2 11 -9
361 1 2 -1.1794 3.612829844318256 7.051101000554296 2.9412563832188794 -4 -2 -1
129 1 1 0.5897 1.5828027491389203 8.997293182496179 3.5852253579272766 -4 0 0
444 1 1 0.5897 2.3039627533767986 11.280320605383846 4.678042085796699 2 4 -1
700 1 2 -1.1794 1.3625695534877396 9.906995056695958 5.192391241528009 3 1 2
128 1 1 0.5897 1.661619943570373 9.533732464411228 2.1717074201702586 -4 0 0
126 1 1 0.5897 4.194789928549124 7.626786773362198 4.548218069498706 0 4 1
566 1 1 0.5897 2.3726870021744704 11.673539713915844 2.679162774996537 2 11 -9
443 1 1 0.5897 3.6788635880225438 11.794681912710693 4.307729772913822 2 4 -1
800 1 1 0.5897 4.3080208225393894 7.5033375062668615 9.74824561085776 2 -5 3
814 1 2 -1.1794 3.035343109931965 10.630683425773624 10.658381868247583 -5 7 0
799 1 2 -1.1794 4.089511132145157 8.28039268972218 9.233747022418703 2 -5 3
327 1 1 0.5897 1.1165704590326806 7.125301972046415 8.357914881510045 5 -5 -3
815 1 1 0.5897 3.926889970352416 10.962331381701008 10.551489050931394 -5 7 0
170 1 1 0.5897 3.0192909859700943 11.794578462271973 7.710722036148458 -7 5 -5
261 1 1 0.5897 1.2502336079615148 8.97050535012207 7.747412241524268 7 -3 4
801 1 1 0.5897 3.8371533241467133 8.935742992473447 9.88420738715794 2 -5 3
260 1 1 0.5897 2.6455645226542237 8.414406032322962 7.936658528875866 7 -3 4
259 1 2 -1.1794 1.878605248669616 8.356860964064044 7.366795465236543 7 -3 4
152 1 1 0.5897 3.8938800044943194 9.949897011669988 6.221179997079827 1 -3 -2
151 1 2 -1.1794 4.045138183569318 10.392482107189423 7.056356582244632 1 -3 -1
186 1 1 0.5897 2.1789654100800426 6.953942045431523 6.079155980016142 -4 9 2
171 1 1 0.5897 2.362449128174056 11.689839549984297 9.07071465706569 -7 5 -5
236 1 1 0.5897 1.701452591696428 9.110197630520513 10.842721748819624 -2 -7 0
702 1 1 0.5897 1.6108896886570687 9.552969850257563 6.046385843781567 3 1 2
478 1 2 -1.1794 2.037214413743902 10.827086111592923 13.449459305359818 -7 7 -5
51 1 1 0.5897 0.8800357821159 7.7029596064549235 14.288480546736901 10 -3 -2
237 1 1 0.5897 1.147731844674945 8.558582138322445 12.139312683893191 -2 -7 0
479 1 1 0.5897 1.4114606610352936 10.114822802718471 13.581365686982455 -7 7 -5
816 1 1 0.5897 2.850033285717673 10.736901562529676 11.591465442722754 -5 7 0
102 1 1 0.5897 3.741153261837624 9.963000995227732 14.0681079868852 0 -4 -4
100 1 2 -1.1794 4.557449355267027 9.489423237404235 13.907871426000904 0 -4 -4
480 1 1 0.5897 1.755076536467694 11.510147666306025 14.05781580518506 -7 7 -5
375 1 1 0.5897 4.406564446592853 6.935353848904224 13.907180898372523 7 9 3
235 1 2 -1.1794 1.6784740052625227 8.318175066723834 11.379848663486793 -2 -7 0
357 1 1 0.5897 1.0852975316191693 10.294603860585992 17.86002393147485 2 -1 0
399 1 1 0.5897 4.546945639073036 9.536401687196356 16.7655351630984 8 2 -4
174 1 1 0.5897 3.800522876535714 10.568672153341337 20.431964774272174 1 -1 0
243 1 1 0.5897 2.4542072645604667 7.797245278728417 17.022429447910568 -2 -2 -2
268 1 2 -1.1794 1.7369000468680014 7.341858113587547 20.509873399132914 3 3 3
356 1 1 0.5897 1.1266221304815005 9.87005880662225 19.312628887809602 2 -1 0
270 1 1 0.5897 2.5442333970858364 7.855264343223005 20.539849903303185 3 3 3
355 1 2 -1.1794 1.6869196265727189 10.158022261240287 18.591920723595415 2 -1 0
242 1 1 0.5897 2.7431699158040637 9.087250547985093 17.760248991480005 -2 -2 -2
88 1 2 -1.1794 4.0481817274807375 8.742949834374478 20.519055026357236 7 -2 6
269 1 1 0.5897 1.0463044607977845 7.96760270487052 20.72854750083078 3 3 3
241 1 2 -1.1794 3.163260317069547 8.402453264333559 17.239806252904664 -2 -2 -2
89 1 1 0.5897 4.754220350757221 8.652315739978452 19.878985552671566 7 -2 6
90 1 1 0.5897 4.497025643608108 8.864665544033368 21.35576371217448 7 -2 6
172 1 2 -1.1794 4.0880687685414046 11.434763741679552 20.720877738565605 1 -1 0
723 1 1 0.5897 4.7035034017706785 7.624866107107527 18.169386890977876 1 -7 0
606 1 1 0.5897 0.8508716519326918 6.981174293267698 18.84925506093252 -2 0 0
604 1 2 -1.1794 0.9942736292843057 6.835059362420234 17.91415837219826 -2 0 0
505 1 2 -1.1794 4.482007867799197 13.644738654996877 2.3873390052607357 0 4 -1
453 1 1 0.5897 1.5964065790481374 14.30177141290712 1.347508644169623 -3 4 7
442 1 2 -1.1794 2.791198061298869 12.087733432422016 4.513859562912325 2 4 -1
451 1 2 -1.1794 1.6816478325908946 14.185470057721538 2.293816163793489 -3 4 7
452 1 1 0.5897 2.59333515670997 13.923524454725381 2.4222663676564746 -3 4 7
422 1 1 0.5897 1.154572752884776 15.269875572903734 3.706727983106641 -7 0 6
150 1 1 0.5897 3.910684300385529 15.493864755251852 4.890336980304045 -11 0 3
506 1 1 0.5897 4.70048160971821 14.239197642732032 3.105083195167937 0 4 -1
423 1 1 0.5897 1.7709201887887698 16.594809503773867 4.1025180904675755 -7 0 6
421 1 2 -1.1794 1.0478219758695515 16.00364016605481 4.312101944862535 -7 0 6
507 1 1 0.5897 4.837575763799813 14.069906041368693 1.6068971002284134 0 4 -1
148 1 2 -1.1794 4.560500094742258 15.816804590032406 4.266048245412188 -11 0 3
162 1 1 0.5897 2.6293391661411394 13.748461715301659 5.738489821134857 4 10 3
290 1 1 0.5897 3.199659920631425 14.47517820025613 10.442631052450439 -9 -8 -7
169 1 2 -1.1794 2.452743605971609 12.27239095057732 8.316551943772113 -7 5 -5
338 1 1 0.5897 1.2503083573986817 13.701102680622876 10.746909129344683 2 4 -1
304 1 2 -1.1794 0.7962443765729212 16.071230703887203 7.16174407526654 3 -1 -3
291 1 1 0.5897 2.4953881181291586 14.045013850454142 9.173394005115478 -9 -8 -7
289 1 2 -1.1794 2.44197074183551 14.674390683770557 9.892634100111442 -9 -8 -7
573 1 1 0.5897 0.9281891750891743 12.648015902686351 7.456026327565349 7 -1 -6
650 1 1 0.5897 0.9868780327232873 15.972745941642184 9.882242920514042 7 -3 0
160 1 2 -1.1794 2.8810958748247346 14.598470498083952 6.099635033144714 4 10 3
161 1 1 0.5897 2.061247044158766 14.976255734804422 6.418060973952376 4 10 3
134 1 1 0.5897 4.55852987362508 16.774161139213057 7.271423789046171 2 -6 -3
330 1 1 0.5897 3.2139428027849686 16.704020517692662 9.099881570306483 3 4 -1
40 1 2 -1.1794 2.6342544267613217 12.664198645922264 15.414912124827165 -5 0 -3
425 1 1 0.5897 3.2272164493732367 14.216225133167065 12.675902932702101 3 -4 2
472 1 2 -1.1794 4.738271114258291 14.388211729978 11.38694046693439 -3 2 3
426 1 1 0.5897 1.7998722046906557 13.834370456085553 13.005890337632865 3 -5 2
424 1 2 -1.1794 2.4930707096938294 14.450089326634059 13.243895391367078 3 -4 2
767 1 1 0.5897 2.668703386413831 16.416746593615017 12.444312130226328 4 -2 2
42 1 1 0.5897 3.224739987913513 12.946633486612651 14.71644969844524 -5 0 -3
860 1 1 0.5897 1.6384396527351701 16.051851359128534 14.876599965290715 -6 -3 2
412 1 2 -1.1794 3.4250689624907844 15.715868955844183 15.750137820091753 -3 -3 2
414 1 1 0.5897 3.9306957986374087 15.001920211097081 15.361693358264299 -3 -3 2
41 1 1 0.5897 1.9811836187155933 13.36157144596876 15.473723697635933 -5 0 -3
337 1 2 -1.1794 0.7659453259642657 13.059188135494566 11.266149449215563 2 4 -1
859 1 2 -1.1794 0.7343827344365704 16.346528857712183 14.766517235273325 -6 -3 2
481 1 2 -1.1794 0.7565723100818672 14.47453062530125 20.44115281948266 3 3 -5
222 1 1 0.5897 3.5190036512035516 16.61303064419363 18.481747827986027 -1 -1 3
48 1 1 0.5897 4.477243449652893 15.11340756427863 19.7834275075208 6 -3 -3
482 1 1 0.5897 1.1480429373645393 13.725439458557394 19.991809692994728 3 3 -5
436 1 2 -1.1794 2.302736745988124 12.845145529641599 18.77642961032116 1 1 2
437 1 1 0.5897 2.1252766863911488 11.953409243198534 18.477114975537283 1 1 2
438 1 1 0.5897 2.944447877445958 13.184483531829628 18.152446662044888 1 1 2
221 1 1 0.5897 4.721045796998592 15.849627630484752 17.967649168999486 -1 -1 3
220 1 2 -1.1794 3.8658274382108098 15.726709692750768 18.379668224594553 -1 -1 3
189 1 1 0.5897 1.4740629939001852 16.205710729696335 20.99337208865277 -4 4 3
552 1 1 0.5897 0.9357987192844173 13.816375792572472 17.866395461561858 3 8 -7
413 1 1 0.5897 3.5211364732139505 15.591907447563262 16.694421643362183 -3 -3 2
46 1 2 -1.1794 4.8440621481062625 14.696732555324887 20.563234838956063 6 -3 -3
173 1 1 0.5897 3.4908064692205 12.043374845233012 20.28597533771633 1 -1 0
533 1 1 0.5897 1.3883439932889743 21.428975097263532 4.573500129455935 -7 0 -5
532 1 2 -1.1794 0.6060991224235102 21.4122897329257 5.1249480406109775 -7 0 -5
835 1 2 -1.1794 2.7704231791751726 17.802265384642304 3.2943898318561424 5 5 0
612 1 1 0.5897 3.6137593335351426 21.08836557309951 5.480630358779748 2 3 -2
837 1 1 0.5897 3.528378035160157 17.273899623546797 3.5445916505202173 5 5 0
855 1 1 0.5897 2.7214327892238157 19.724530365653806 3.447545029606569 -2 1 1
836 1 1 0.5897 2.4739802903358417 17.420536642878535 2.4681503715398576 5 5 0
854 1 1 0.5897 3.347407852037721 20.896990211016835 2.7226438953720637 -2 1 1
761 1 1 0.5897 3.8372833918795073 17.26638875803731 0.7337849905860616 3 -2 -1
853 1 2 -1.1794 2.9750844588106853 20.639874773179187 3.5661720814531988 -2 1 1
619 1 2 -1.1794 1.4468725813171563 19.295153481681638 6.589376219684128 4 -7 1
329 1 1 0.5897 2.619963055855 17.32082630417291 10.348370341285264 3 4 -1
621 1 1 0.5897 1.1294166531538092 19.389354074303007 7.487499455162495 4 -7 1
288 1 1 0.5897 4.6345362329951785 19.669797501899914 10.917340102088316 6 -3 5
846 1 1 0.5897 3.2096460972098186 18.73454818491293 6.30175477086528 6 3 3
328 1 2 -1.1794 2.6650942608610673 17.429233087951882 9.398380366086743 3 4 -1
620 1 1 0.5897 0.9933769213154149 19.982400267476308 6.101212504871642 4 -7 1
610 1 2 -1.1794 3.675739894847689 21.789302990069373 6.129564576839556 2 3 -2
34 1 2 -1.1794 2.915981974397904 19.92320924359808 10.322620352633125 -6 4 1
36 1 1 0.5897 2.8757055139825 20.70786294102814 9.775822222241192 -6 4 1
844 1 2 -1.1794 4.107824705500469 18.407451101199783 6.352413952873089 6 3 3
35 1 1 0.5897 2.778605807945516 19.198353746690785 9.712697585298848 -6 4 1
845 1 1 0.5897 4.497260836313921 18.887622326967325 7.0832125342853 6 3 3
798 1 1 0.5897 2.4090141895745623 21.830861980370898 7.5282621700713666 -3 -3 -3
797 1 1 0.5897 1.1693167820986363 21.75688049936764 8.394096892634193 -3 -3 -3
306 1 1 0.5897 1.1807563641714265 16.93332284257785 7.320616366238833 3 -1 -3
608 1 1 0.5897 2.115584909099244 19.459065994191405 14.827964735823537 7 5 5
607 1 2 -1.1794 1.686022402864225 18.98886390291964 15.542605288073112 7 5 5
38 1 1 0.5897 4.0918789396670325 17.432697905898728 15.201159455527993 -3 3 -5
768 1 1 0.5897 3.7523779704238205 17.469418484096465 12.346503887748861 4 -2 2
699 1 1 0.5897 2.8658330457923658 20.78657119212867 13.363351708715696 5 -1 -9
698 1 1 0.5897 3.117387226128313 19.623236895336447 12.427742456706365 5 -1 -9
39 1 1 0.5897 4.154830104763712 18.866238412073216 14.718458785971013 -3 3 -5
697 1 2 -1.1794 3.0690659405138723 19.851201180581022 13.356162873226955 5 -1 -9
37 1 2 -1.1794 4.594917592839283 18.24165239087278 15.295081563848662 -3 3 -5
766 1 2 -1.1794 2.861623388058939 17.270907701009477 12.05766571514636 4 -2 2
609 1 1 0.5897 1.377850659240269 18.175234557692555 15.143463946155787 7 5 5
206 1 1 0.5897 1.0737635617557155 19.502632032297086 13.151220544651222 -6 2 -2
207 1 1 0.5897 0.8240072864342416 18.046528361369866 12.820465007559278 -6 2 -2
544 1 2 -1.1794 4.040801687693776 19.43412255233543 19.603596289076293 -6 6 2
546 1 1 0.5897 4.699350318269565 19.66467227160902 18.948279422879565 -6 6 2
9 1 1 0.5897 2.4147834674320525 21.01357004806166 20.5369311227454 4 0 0
771 1 1 0.5897 1.9027394325558742 18.359060202282315 17.33472092088177 2 -4 2
770 1 1 0.5897 2.8111829902679064 18.681938125687786 18.501971348136955 2 -4 2
545 1 1 0.5897 4.423767883835846 18.697344964222374 20.07981336981011 -6 6 2
769 1 2 -1.1794 2.268686127784128 17.983564344101346 18.13556623192249 2 -4 2
465 1 1 0.5897 0.68474783555719 21.13606169040081 16.699811056146125 7 3 -6
8 1 1 0.5897 1.3980783231176783 20.217356743275936 21.327111564530433 4 0 0
7 1 2 -1.1794 1.8196517549100555 21.075681981366884 21.284090727636652 4 0 0
188 1 1 0.5897 1.3077145698757375 17.669839431674593 21.34077494635232 -4 4 3
187 1 2 -1.1794 1.926927619479522 16.942534108067285 21.403585399450016 -4 4 3
568 1 2 -1.1794 3.9065230676766016 21.643031384201343 17.093215843705806 5 -2 2
726 1 1 0.5897 4.476818328363779 20.58948973594304 21.128154331353613 2 -8 3
245 1 1 0.5897 0.6406629425393686 17.2084085697901 18.331773935248385 -6 4 0
760 1 2 -1.1794 4.791995418273315 17.248938709409124 21.445347591205376 3 -2 -2
729 1 1 0.5897 5.619029632617623 4.433468702227745 4.056692539743079 0 -1 -3
728 1 1 0.5897 7.115717699917437 4.229804665535843 4.1588201916213166 0 -1 -3
727 1 2 -1.1794 6.4388148630768764 4.597225356319673 3.5904238340627015 0 -1 -3
803 1 1 0.5897 8.481922308651683 4.749388939014501 1.8381651647525434 5 3 -2
345 1 1 0.5897 8.1098433511901 2.3351574102078647 4.682197924302372 0 1 1
343 1 2 -1.1794 8.220894036617544 3.234620187393693 4.9902758881193945 0 1 1
344 1 1 0.5897 7.607398875760826 3.315629916281262 5.720570519992926 0 1 1
65 1 1 0.5897 6.4702870356773206 5.785290719194221 1.1456587992922556 2 -2 -6
31 1 2 -1.1794 6.950554439695696 2.262919637555491 1.7821638248239882 2 13 -3
32 1 1 0.5897 6.727579356739785 3.055284285223772 2.2707498238971278 2 13 -3
587 1 1 0.5897 7.073458892200269 6.290227485877942 4.878681573168256 -1 -3 6
64 1 2 -1.1794 7.376291324120435 5.869464272380591 0.8484064440446955 2 -2 -6
586 1 2 -1.1794 7.862344027897988 6.657372636940306 5.277598241815441 -1 -3 6
108 1 1 0.5897 6.726692690294167 4.3456655622398195 10.141020413266054 1 1 4
106 1 2 -1.1794 6.172287781881789 4.60215869241247 9.404055689347034 1 1 4
308 1 1 0.5897 5.253947243316557 2.5596626572823054 6.582906103262708 4 9 -2
307 1 2 -1.1794 5.979610076076127 3.174584855917086 6.6904074387190295 4 9 -2
583 1 2 -1.1794 8.15535984989229 5.760622320701582 7.911454506012651 3 -7 6
107 1 1 0.5897 5.86936215663633 3.773879721779271 9.031951452454589 1 1 4
394 1 2 -1.1794 5.247290966075701 5.812994835489128 6.4887744636439475 3 3 3
309 1 1 0.5897 5.557697403667272 4.026499273690444 6.802289379326323 4 9 -2
585 1 1 0.5897 7.994075440564854 6.024005559900235 7.00542637391219 3 -7 6
281 1 1 0.5897 8.43652176874298 5.888474425477699 10.973330213758521 2 -1 5
354 1 1 0.5897 7.429639976883214 2.7414154269648705 7.699359792768003 4 5 -1
584 1 1 0.5897 7.325311272847577 5.383516304214089 8.203140686316 3 -7 6
280 1 2 -1.1794 8.846105617430954 6.582216610374177 10.456376040655337 2 -1 5
561 1 1 0.5897 5.025241873198384 5.491907701131485 10.360059830702957 4 1 1
466 1 2 -1.1794 5.062268251481307 1.9465898308450016 9.298482329466816 2 -4 1
352 1 2 -1.1794 8.266379743128448 2.6905931833872607 8.16148122266356 4 5 -1
282 1 1 0.5897 8.498122197129682 6.460532037858051 9.572990623201461 2 -1 5
395 1 1 0.5897 4.938377650401168 6.640738101973309 6.1204192662133945 3 3 3
353 1 1 0.5897 8.734421913187544 1.9743159598950661 7.7323486962113055 4 5 -1
467 1 1 0.5897 5.684370416351794 1.8777081537062457 10.02272520102012 2 -4 1
736 1 2 -1.1794 5.2906344961591945 3.7091804037535763 12.55926923412218 -1 -1 -2
405 1 1 0.5897 7.093586098017056 4.090686271536606 11.98866620760626 7 0 -1
731 1 1 0.5897 8.46615858996783 3.507868887966098 15.747434644931394 0 5 -7
730 1 2 -1.1794 7.596337177192244 3.1793733869303082 15.974978463985902 0 5 -7
404 1 1 0.5897 8.42124996728494 3.5042793676234565 11.558004860997684 7 0 -1
732 1 1 0.5897 7.28775734331294 2.7459500294365506 15.179242896212745 0 5 -7
374 1 1 0.5897 5.825803371253179 6.408363206560026 13.901690520391803 7 9 3
403 1 2 -1.1794 7.914898263631617 4.316594422247584 11.55196924667 7 0 -1
373 1 2 -1.1794 4.920687444021043 6.143683167793647 14.06593847662637 7 9 3
558 1 1 0.5897 5.441974518598073 5.430985254876964 15.576852543045291 1 -3 1
737 1 1 0.5897 4.898592041203193 4.4347263283201945 13.045312801660637 -1 -1 -2
155 1 1 0.5897 5.075819053991753 2.54867013965823 13.779765331995714 7 2 -4
812 1 1 0.5897 8.889132231700398 6.346491114442483 13.285291272321974 -8 4 -1
154 1 2 -1.1794 5.158335391027297 1.8608041176128873 14.440318997266324 7 2 -4
557 1 1 0.5897 6.288162400180418 4.36790149338953 16.244592886759246 1 -3 1
632 1 1 0.5897 6.700315434292178 4.370703869892745 19.65824608028889 5 9 6
631 1 2 -1.1794 6.773960945034196 5.174100988610327 19.14304405159278 5 9 6
623 1 1 0.5897 7.29178019640619 1.837009238052721 19.39968073133725 7 6 2
633 1 1 0.5897 7.679069723873588 5.177248179508394 18.831480171300996 5 9 6
428 1 1 0.5897 8.157635697906507 1.961853411622485 17.119281478553262 -2 4 1
622 1 2 -1.1794 6.766869144376153 2.476644373132403 19.880938524697278 7 6 2
624 1 1 0.5897 7.054854052823908 2.388489391585655 20.789550168755092 7 6 2
556 1 2 -1.1794 5.729624799568793 5.121415763754438 16.435764302298494 1 -3 1
66 1 1 0.5897 7.319326370304268 5.839213943259211 20.671915680011224 2 -2 -7
347 1 1 0.5897 4.895434730616596 2.811594932081756 19.69039499858777 -3 2 -4
722 1 1 0.5897 5.7813303852973545 6.783820122060184 18.819710261215427 1 -7 0
652 1 2 -1.1794 5.595516804606425 8.749349520981358 2.0250831236935927 3 -1 -4
594 1 1 0.5897 7.786469076616603 9.767593354010689 4.064625567452049 5 -5 -8
317 1 1 0.5897 8.478179145998329 7.056063306555531 1.6532016214019927 -5 -10 -1
592 1 2 -1.1794 7.31243608782934 9.308880776192122 4.758279400499536 5 -5 -8
125 1 1 0.5897 5.349599542639784 8.424139863645344 5.116230467283919 0 4 1
318 1 1 0.5897 7.859946008240562 8.403973459537557 1.9580160188605247 -5 -10 0
142 1 2 -1.1794 8.141704851978512 10.92635275331963 2.6098404799596153 2 5 4
316 1 2 -1.1794 8.673295653690445 7.906965186894517 2.0458519985582297 -5 -10 0
654 1 1 0.5897 5.436669601215348 9.568228682414508 2.4946507357089844 3 -1 -4
529 1 2 -1.1794 5.293479627900283 11.247548064514671 3.4818661347583317 -3 -3 -3
144 1 1 0.5897 7.601812640119834 10.940479497315886 1.8195272925259114 2 5 4
588 1 1 0.5897 7.758280843203208 7.604638516900223 5.187430821528132 -1 -3 6
593 1 1 0.5897 7.432884725378424 9.856623413821431 5.533997658813476 5 -5 -8
531 1 1 0.5897 6.191378581358587 11.340589777626635 3.800291230820226 -3 -3 -3
143 1 1 0.5897 8.92356262750204 11.426326166769003 2.3753323237258357 2 5 4
653 1 1 0.5897 5.019745970615844 8.113513066393615 2.449901560838379 3 -1 -4
824 1 1 0.5897 6.806225769083456 7.246790535702573 8.147541204602089 1 6 3
825 1 1 0.5897 5.600848004497638 8.0978807009553 8.486206896406106 1 6 3
390 1 1 0.5897 6.626875014449472 8.286791879067707 10.477441231578105 -3 7 5
823 1 2 -1.1794 6.558029119505323 8.104623422637689 8.492203198548538 1 6 3
521 1 1 0.5897 6.658296344954848 9.967760943605272 7.897995542795347 3 3 -7
520 1 2 -1.1794 6.8666539493130045 10.646559562440219 7.256052329046768 3 3 -7
522 1 1 0.5897 7.119743522032555 11.405025268805893 7.782340185575471 3 3 -7
707 1 1 0.5897 5.955175337697171 9.99994377252286 10.458030563553713 -5 -5 -5
706 1 2 -1.1794 5.843563043043452 10.890893385643698 10.126335765145585 -5 -5 -5
153 1 1 0.5897 4.995652576561136 10.494608943688629 7.1051562043148975 1 -3 -1
708 1 1 0.5897 5.777931171169488 11.433158848879364 10.912416198923893 -5 -5 -5
114 1 1 0.5897 7.386460461416105 7.429623048314464 14.22263427534226 -1 -3 3
112 1 2 -1.1794 7.277816005529301 7.071158628701384 13.341730797574897 -1 -3 3
382 1 2 -1.1794 6.972767104238386 7.768207845640872 16.257358566463246 -6 -1 -1
774 1 1 0.5897 5.172926192822461 10.998119930708539 13.105319623422426 0 -9 -1
113 1 1 0.5897 6.895504669031535 7.788486425221187 12.836194504904764 -1 -3 3
255 1 1 0.5897 7.0006858939108625 10.289148893710891 13.259287636813403 5 8 -5
253 1 2 -1.1794 7.7189400544165 10.0338950200414 13.83828253229163 5 8 -5
254 1 1 0.5897 8.448157154814627 9.845642560490075 13.247449962483289 5 8 -5
575 1 1 0.5897 7.993122210014923 10.79313816224488 15.452574765859072 3 -5 -1
772 1 2 -1.1794 5.537501007413344 11.733778212337183 12.613222809762357 0 -9 -1
383 1 1 0.5897 6.585885041220488 8.628519736320857 16.09471567031784 -6 -1 -1
147 1 1 0.5897 8.70574623988038 7.285395686053588 16.24906752519717 0 6 -3
389 1 1 0.5897 5.419838698183122 8.10699132218831 11.373410054557185 -3 7 4
388 1 2 -1.1794 6.261902895202479 8.55901316247106 11.31944040829843 -3 7 5
596 1 1 0.5897 8.867536042959902 11.028847094431768 11.183332068438977 4 -5 0
101 1 1 0.5897 5.072066398287935 9.621933708138327 14.704073939504344 0 -4 -4
576 1 1 0.5897 8.958422776942625 11.615554935114531 16.279579679861747 3 -5 -1
398 1 1 0.5897 5.287673647428364 10.843833694852012 16.949746002385083 8 2 -4
392 1 1 0.5897 8.712639782203956 9.422676868048157 20.279868068004596 3 -3 -4
641 1 1 0.5897 6.900887662922274 8.960999499701956 18.775070717663283 3 -1 -4
642 1 1 0.5897 7.634735264961235 10.127074355994488 18.147598203786046 3 -1 -4
640 1 2 -1.1794 7.554328951963325 9.63440180742468 18.964350600321694 3 -1 -4
719 1 1 0.5897 6.940093933673083 10.76773790958799 20.333264657753666 10 5 -3
720 1 1 0.5897 5.882861627502244 11.59345636842213 21.03503576961168 10 5 -3
721 1 2 -1.1794 5.552080892301432 7.688675113538794 18.607698253122443 1 -7 0
384 1 1 0.5897 6.380494795306207 7.3534202607478605 16.8846127238172 -6 -1 -1
574 1 2 -1.1794 8.207422272069287 11.026884806297666 16.355746981542985 3 -5 -1
718 1 2 -1.1794 6.811055695619715 11.362404625764178 21.072197226622457 10 5 -3
397 1 2 -1.1794 5.318725527676582 10.017698591187838 16.467244145138036 8 2 -4
377 1 1 0.5897 7.554392360493997 15.229459648221958 2.3881997126751044 2 3 4
378 1 1 0.5897 8.161727368543843 14.06033238265761 1.6423174522521857 2 3 4
376 1 2 -1.1794 7.768765838753478 14.301194107162555 2.481277503544682 2 3 4
828 1 1 0.5897 7.634417553740248 13.505566280142611 4.041287047439493 3 -1 3
149 1 1 0.5897 5.34143514700242 15.97955790960097 4.795122363203851 -11 0 3
826 1 2 -1.1794 7.394927764143466 13.236519594520974 4.9281694735116135 3 -1 3
163 1 2 -1.1794 7.611137602516577 15.769806553041446 5.83378862007308 -2 1 5
827 1 1 0.5897 8.119579201027108 12.68031540108606 5.2141545429997125 3 -1 3
165 1 1 0.5897 8.290637156132007 16.104964101654083 5.248768676969313 -2 1 5
164 1 1 0.5897 7.461461556208382 14.871775984924737 5.538106682848544 -2 1 5
530 1 1 0.5897 5.201301275459894 11.932958359574274 2.820058106707457 -3 -3 -3
636 1 1 0.5897 4.8830725937366255 13.110832253170193 8.210315813090306 -4 1 1
821 1 1 0.5897 8.739789559756836 15.541859435825403 7.522624785473688 0 -4 5
675 1 1 0.5897 8.556062956946333 12.596572960165972 9.687604354980373 -3 -9 -2
473 1 1 0.5897 5.262826920228766 14.08696110225569 10.645079173343692 -3 2 3
133 1 2 -1.1794 5.041343368610044 16.364060552353642 7.989051713783401 2 -6 -3
822 1 1 0.5897 8.780699821127326 14.495294273246653 8.615806880950318 0 -4 5
673 1 2 -1.1794 8.204385944750694 12.751640029846858 8.810937083923118 -3 -9 -2
820 1 2 -1.1794 9.065681361643202 15.385393638983716 8.40896943269097 0 -4 5
634 1 2 -1.1794 5.450768522997949 13.61561169380864 8.792724497420313 -4 1 1
674 1 1 0.5897 7.32204055651821 13.090328310660214 8.96276314307342 -3 -9 -2
216 1 1 0.5897 8.083110843262244 16.490584369072998 9.645797197805566 -3 2 3
635 1 1 0.5897 5.304502582790722 14.52713863741869 8.539722921641054 -4 1 1
754 1 2 -1.1794 8.569055330508498 13.55982775020087 13.407061625844976 -5 -3 -6
229 1 2 -1.1794 8.379235794996504 14.041903555013853 16.215981482829783 0 7 3
368 1 1 0.5897 5.474482442499359 13.275002658549534 15.499960710013923 5 8 0
756 1 1 0.5897 8.509172792879305 12.822155676833122 12.799990171751347 -5 -3 -6
367 1 2 -1.1794 5.312001844675382 13.671113256593934 14.643816672293973 5 8 0
755 1 1 0.5897 8.947987435373253 14.268490838115405 12.886972797912883 -5 -3 -6
773 1 1 0.5897 5.517946144886246 12.467084108679865 13.228159729776637 0 -9 -1
369 1 1 0.5897 5.959979088190782 14.372513046605812 14.577038515764821 5 8 -1
258 1 1 0.5897 7.716248941814885 16.82669246546967 14.520374938542615 1 -3 1
484 1 2 -1.1794 5.94001304713116 16.78385569242624 12.061169903121419 6 0 -3
231 1 1 0.5897 8.247631747800632 13.954779654537969 15.271859306036175 0 7 3
474 1 1 0.5897 5.165882529538852 15.196180888379114 11.670856141653118 -3 2 3
256 1 2 -1.1794 6.944989669001574 16.260965600255396 14.557514618142356 1 -3 1
257 1 1 0.5897 6.648506061510831 16.318725731220376 15.465826671072199 1 -3 1
595 1 2 -1.1794 9.088724351538312 11.956830208869688 11.262277164126875 3 -5 0
402 1 1 0.5897 8.078796538603822 14.681838391916669 19.29875211963892 -3 -6 2
400 1 2 -1.1794 7.285461466242469 14.146876384850101 19.325315802500732 -3 -6 2
670 1 2 -1.1794 5.793398219724123 12.55464951582967 17.27981553094792 5 4 0
118 1 2 -1.1794 6.219592382430913 15.945033883713407 17.349524118033187 2 -4 -3
672 1 1 0.5897 5.951817587145607 13.081851319379915 18.062931539125387 5 4 0
120 1 1 0.5897 6.689180896784709 15.194968333544013 17.714523907575263 2 -4 -3
401 1 1 0.5897 7.525840401714555 13.387317732422364 19.85594377619087 -3 -6 2
47 1 1 0.5897 5.768420048974247 14.564522082296012 20.352377881495748 6 -3 -3
119 1 1 0.5897 6.563964728487922 16.699511757175536 17.82748019738616 2 -4 -3
671 1 1 0.5897 6.647451670843842 12.178182310866822 17.067044669860167 5 4 0