LAMMPS data file via write_data, version 30 Jul 2021, timestep = 14750000

972 atoms
2 atom types
648 bonds
1 bond types
324 angles
1 angle types

0.002546901608770469 19.99745409838507 xlo xhi
0.1391212781576847 19.860879721819103 ylo yhi
0.07802281651756182 20.621975183484366 zlo zhi

Masses

1 1.008
2 15.999

Pair Coeffs # lj/cut/tip4p/long/omp

1 0 0
2 0.21084 3.1668

Bond Coeffs # harmonic/omp

1 450 0.9572

Angle Coeffs # harmonic/omp

1 55 104.52

Atoms # full

10 4 2 -1.1794 1.565017280230621 4.533857806656904 3.347182140110326 0 0 0
11 4 1 0.5897 1.5576569262386006 3.6230822731519003 3.0528024482000795 0 0 0
31 11 2 -1.1794 1.1463013407103535 1.88726864521563 2.443023442260863 0 0 0
33 11 1 0.5897 1.8330687133247325 2.0298544040320934 1.7916216477607672 0 0 0
23 8 1 0.5897 2.6864733416547817 1.0846074142658102 4.37691557315675 0 0 0
12 4 1 0.5897 2.4734214985068874 4.696540745132715 3.601449843534694 0 0 0
16 6 2 -1.1794 4.2309275971152305 3.988512976452882 3.709104952336633 0 0 0
18 6 1 0.5897 4.155658525371696 3.0480628023960152 3.547463119482276 0 0 0
4 2 2 -1.1794 4.190532812681678 1.3014786724298335 3.141502603318578 0 0 0
6 2 1 0.5897 4.9279768331055696 1.1743413990312086 3.7384223521825786 0 0 0
41 14 1 0.5897 9.791580223698963 1.0794778551353579 4.100918371283828 0 0 0
22 8 2 -1.1794 2.147393043746526 0.8951042921274159 5.144875961807282 0 0 0
34 12 2 -1.1794 5.502183912931752 2.7420095902163655 0.40155405672694383 0 0 0
37 13 2 -1.1794 9.437749753919233 2.2580935715080765 0.5969450032007498 0 0 0
17 6 1 0.5897 4.381392166318341 4.369436073377767 2.8439401462715903 0 0 0
5 2 1 0.5897 4.21408913717191 0.5377953620416709 2.5649003234249963 0 0 0
69 23 1 0.5897 6.812039609814901 2.5310712819783934 1.8074330177494626 0 0 0
48 16 1 0.5897 7.314821569752216 4.53479756759854 4.4817864448503935 0 0 0
273 91 1 0.5897 7.453190636182539 0.2014094731805096 2.1905623639721457 0 1 0
67 23 2 -1.1794 7.432729274105895 2.0882727108039614 2.3861811884723965 0 0 0
46 16 2 -1.1794 7.911748617161308 4.390701157806339 3.7475007585982207 0 0 0
47 16 1 0.5897 7.696908725841449 3.5127994727953737 3.4322763530348435 0 0 0
68 23 1 0.5897 8.292051871118636 2.289372747800416 2.0154695761603465 0 0 0
32 11 1 0.5897 0.33078591993091305 2.0683188001591573 1.975607599983804 0 0 0
236 79 1 0.5897 1.0371676437570292 0.14201242408931938 1.8668136125778176 0 1 0
53 18 1 0.5897 9.686304640875752 4.164099124080265 3.9630128889660985 0 0 0
1 1 2 -1.1794 2.815006337148593 2.471987829307581 0.37863725662869174 0 0 0
3 1 1 0.5897 3.7473541482244626 2.398052173386336 0.5825038313324691 0 0 0
2 1 1 0.5897 2.666312214127093 3.4115956195911377 0.2724919429825025 0 0 0
81 27 1 0.5897 0.38876163988174156 4.506747098016714 4.8507356809085564 1 0 0
102 34 1 0.5897 0.28763933152199733 1.127643247733002 5.067435062288009 1 0 0
9 3 1 0.5897 5.278636312852725 4.262722423022981 4.941767273215675 0 0 0
29 10 1 0.5897 6.713924213474702 1.147953845724049 5.119052149954203 0 0 0
710 237 1 0.5897 9.36072527423033 4.004230709354557 0.2521085277030295 0 0 1
709 237 2 -1.1794 9.348700030926699 4.9588429170415464 0.18293890336392593 0 0 1
325 109 2 -1.1794 2.7011223105460687 2.8048336175279864 7.079736745163566 0 0 0
326 109 1 0.5897 2.4597555406862925 2.224069936448734 6.358147074349266 0 0 0
327 109 1 0.5897 3.622930237761336 2.608847010579794 7.247562516432514 0 0 0
355 119 2 -1.1794 0.7926665545621502 2.2459247726721725 8.770429706837918 0 0 0
356 119 1 0.5897 1.528388437204165 2.4078331314024037 8.179847437930821 0 0 0
328 110 2 -1.1794 3.7565449102301383 1.7822122588216334 10.049668535335153 0 0 0
7 3 2 -1.1794 5.894218212564753 4.474044860316598 5.643685342326415 0 0 0
330 110 1 0.5897 3.956726795757368 1.016712910996739 9.510980537654149 0 0 0
335 112 1 0.5897 0.8222554869388268 3.5741478448135346 10.06997991519753 0 0 0
362 121 1 0.5897 9.090024954693897 3.6090820265761456 7.045688936953839 0 0 0
28 10 2 -1.1794 5.816235865707268 0.8524172963419089 5.271137282265748 0 0 0
360 120 1 0.5897 5.491225174591051 1.8906480212155057 6.639022044191477 0 0 0
393 131 1 0.5897 7.448263134754969 1.0704650981056147 9.187060739895092 0 0 0
391 131 2 -1.1794 7.509488830169262 2.024937349333557 9.225225496499371 0 0 0
392 131 1 0.5897 8.257686569786426 2.2399161905947618 8.668207775715146 0 0 0
8 3 1 0.5897 5.701039482499887 3.837524483088415 6.331996963785422 0 0 0
358 120 2 -1.1794 5.3690800566075705 2.4786102941105512 7.384422991815256 0 0 0
359 120 1 0.5897 6.105123081215542 2.285834224882657 7.965265012926546 0 0 0
361 121 2 -1.1794 9.26656018082639 2.735444788349843 7.394713307005612 0 0 0
27 9 1 0.5897 2.7825040502013403 4.606046618300511 6.5624127228045275 0 0 0
59 20 1 0.5897 8.744407983685125 1.3331013820160633 6.1564276008504795 0 0 0
357 119 1 0.5897 0.01543100909957315 2.407992150541684 8.235685458846959 0 0 0
561 187 1 0.5897 0.9822429717826289 0.26966483288681 8.607374310007808 0 1 0
341 114 1 0.5897 4.071419424798195 3.5702123663506624 10.241705156795563 0 0 0
58 20 2 -1.1794 8.561308857370987 0.7348542930165828 5.432007598178371 0 0 0
342 114 1 0.5897 4.045925899128346 5.026233810004092 9.82787496616922 0 0 0
649 217 2 -1.1794 2.426381035633428 2.504467797755152 13.610194758517027 0 0 0
650 217 1 0.5897 2.277068452632579 1.9478870726834168 12.845885128487273 0 0 0
346 116 2 -1.1794 1.8674335002448168 0.6548860135613713 11.622993557068101 0 0 0
348 116 1 0.5897 2.408910375750586 1.0236745279770605 10.925089519968704 0 0 0
347 116 1 0.5897 0.9683748272683141 0.8462354664726028 11.355782517290976 0 0 0
651 217 1 0.5897 1.7822298995796746 2.2073872104784047 14.252929774981638 0 0 0
332 111 1 0.5897 5.000606907640917 4.597956337730218 11.98824751267538 0 0 0
331 111 2 -1.1794 5.688239512717914 4.602900998907348 12.654160328254076 0 0 0
329 110 1 0.5897 4.336530857869585 1.7011200587125677 10.806851615089887 0 0 0
371 124 1 0.5897 7.577451768355725 3.3674316371709336 10.609649708626845 0 0 0
683 228 1 0.5897 4.065511748257428 2.7082793578524416 14.438056054528646 0 0 0
383 128 1 0.5897 8.636366365320553 1.651772135140027 12.568021006473682 0 0 0
682 228 2 -1.1794 5.008744918051683 2.8400580494767196 14.534202379917113 0 0 0
340 114 2 -1.1794 3.909058011774967 4.450660837525937 10.58035994979386 0 0 0
372 124 1 0.5897 7.126059158391959 4.588930141836728 11.381711473849446 0 0 0
386 129 1 0.5897 8.800634980508791 4.509923508756007 13.64651779159412 0 0 0
354 118 1 0.5897 5.376209801940032 1.8145058666837715 12.940733680136686 0 0 0
382 128 2 -1.1794 8.217573386304096 0.9576028715302026 12.059160575556573 0 0 0
684 228 1 0.5897 5.196981949034485 3.618562453534104 14.010044016735046 0 0 0
384 128 1 0.5897 8.732191963987562 0.9067517380938452 11.253648125229004 0 0 0
685 229 2 -1.1794 9.081780149644581 2.7119118201373364 13.939522709030147 0 0 0
350 117 1 0.5897 2.129830628676536 4.207532290114665 13.623410872722907 0 0 0
352 118 2 -1.1794 5.461834688228412 1.2873119858086903 12.146388222442344 0 0 0
686 229 1 0.5897 8.594453226974291 2.5317618830704274 14.743471813390933 0 0 0
353 118 1 0.5897 6.404447586065077 1.2494185813615934 11.983935664237807 0 0 0
336 112 1 0.5897 2.010719672246928 4.218942015344778 10.75106751350582 0 0 0
334 112 2 -1.1794 1.0694427457855646 4.323540298002659 10.61178274115012 0 0 0
370 124 2 -1.1794 7.800578898765239 4.283438862916647 10.775097227263949 0 0 0
377 126 1 0.5897 9.635081790217178 4.303480684556159 10.395536612408737 0 0 0
680 227 1 0.5897 0.043196562981318465 2.4633984030917815 15.408462235148596 0 0 0
658 220 2 -1.1794 1.129657581285465 3.968749900156167 17.677636600481172 0 0 0
664 222 2 -1.1794 3.904749180630427 4.000615647933318 17.12720435711732 0 0 0
671 224 1 0.5897 2.3803082898912713 1.6819731170055012 19.305236277141653 0 0 0
653 218 1 0.5897 3.63411111049933 1.192890656886873 17.67044644274636 0 0 0
670 224 2 -1.1794 2.1241065689462153 1.0765182180595914 18.6095088823174 0 0 0
652 218 2 -1.1794 4.452048736223643 1.427508003814928 17.23198558186543 0 0 0
672 224 1 0.5897 1.1684001915195013 1.048233259369643 18.655831234718164 0 0 0
665 222 1 0.5897 2.992052215983594 3.9942116898690374 17.415793869035483 0 0 0
666 222 1 0.5897 4.150506671977256 3.0763332795643135 17.087833741502003 0 0 0
681 227 1 0.5897 0.9872606413085375 2.649072196908519 16.577345973664542 0 0 0
679 227 2 -1.1794 0.7605204333264269 2.0368798089483957 15.877301654986196 0 0 0
656 219 1 0.5897 4.859381421937024 4.590598665831075 18.427843078524027 0 0 0
696 232 1 0.5897 7.5859442233241445 4.894031419161061 17.205105904112706 0 0 0
884 295 1 0.5897 0.4266286126532882 0.3940780952640343 15.577784913785143 0 1 0
654 218 1 0.5897 4.481791753961058 0.8614690677533297 16.46065074058297 0 0 0
715 239 2 -1.1794 7.365455419266616 2.147219850757378 15.961041163464465 0 0 0
655 219 2 -1.1794 5.3784190463626365 4.904167361457353 19.168464940418524 0 0 0
657 219 1 0.5897 6.28702164385006 4.804637305779155 18.884079204497844 0 0 0
677 226 1 0.5897 5.454699916455504 0.8803646863656217 18.457602117154373 0 0 0
676 226 2 -1.1794 6.080045745567611 0.7608310258141364 19.172402189599637 0 0 0
38 13 1 0.5897 9.140832876406439 1.7859518742225167 20.362971905736067 0 0 -1
694 232 2 -1.1794 7.723972049038027 4.201699487653554 17.851528719576883 0 0 0
708 236 1 0.5897 7.961203772258529 0.9159446541089714 18.70459536205759 0 0 0
660 220 1 0.5897 0.8409230748616006 4.653120030778681 17.073889357552865 0 0 0
706 236 2 -1.1794 8.912511681963172 0.919947418454084 18.811105779435195 0 0 0
695 232 1 0.5897 7.6135966944877955 3.3882598901559415 17.3592280125726 0 0 0
716 239 1 0.5897 7.31132917219336 1.192706133841594 16.007984902529685 0 0 0
659 220 1 0.5897 0.4571999259982405 3.950162824434056 18.35863039518057 0 0 0
702 234 1 0.5897 9.589678926952045 4.147409903286657 17.47131762220903 0 0 0
717 239 1 0.5897 6.484976685856525 2.425396350900492 15.708652083017201 0 0 0
35 12 1 0.5897 5.813155769050188 2.07277292526556 20.335880684070993 0 0 -1
36 12 1 0.5897 5.475877679545078 3.545823797014785 20.426458093048993 0 0 -1
176 59 1 0.5897 7.573706449378026 7.843917948708926 2.116151757334665 0 0 0
175 59 2 -1.1794 7.5949146654263835 8.800518147620384 2.1423386133689655 0 0 0
20 7 1 0.5897 0.9775752478325453 5.9542431583381745 2.4124897193889003 0 0 0
142 48 2 -1.1794 5.153018062077931 9.085203712422077 0.6357045389007823 0 0 0
15 5 1 0.5897 4.55377318507658 6.635583333458559 2.0676041591323857 0 0 0
110 37 1 0.5897 1.747487880905018 9.434932468543442 0.7000249645442723 0 0 0
19 7 2 -1.1794 0.7519681149863328 6.59601545332082 1.7390875017694822 0 0 0
113 38 1 0.5897 4.764708554017259 7.492045947000891 4.1180845784271245 0 0 0
114 38 1 0.5897 3.3630116627226285 7.776818555533653 3.6218069925543475 0 0 0
112 38 2 -1.1794 4.2834796642565465 7.967325547409299 3.440756710550238 0 0 0
141 47 1 0.5897 0.9185352862470747 8.315003930099572 2.1823672077397225 0 0 0
57 19 1 0.5897 7.494114433665768 5.581692481982253 2.4372531562982416 0 0 0
139 47 2 -1.1794 0.5857390249283259 9.206030947963887 2.074824981781916 0 0 0
111 37 1 0.5897 3.211940464855952 9.34423192949661 0.326763808015877 0 0 0
56 19 1 0.5897 6.350045450430693 5.942090258077909 1.5135170030126988 0 0 0
140 47 1 0.5897 0.7581314525288961 9.62970979047682 2.915676665202323 0 0 0
130 44 2 -1.1794 1.8155764737482059 7.572546259505836 4.718410553194974 0 0 0
13 5 2 -1.1794 4.616969443211011 5.781135030275099 1.6408115973278785 0 0 0
14 5 1 0.5897 3.8688589769456057 5.7549689273233655 1.0441882535623288 0 0 0
143 48 1 0.5897 5.87747470965995 9.04904012911486 1.260330437766824 0 0 0
674 225 1 0.5897 1.7077563873832788 5.66970426078289 0.3934312689630747 0 0 1
55 19 2 -1.1794 7.29155429201802 6.064326928329301 1.6358254430575487 0 0 0
177 59 1 0.5897 8.35432455467644 9.038378043655678 1.6103357484768817 0 0 0
711 237 1 0.5897 8.50258927473355 5.215396289534294 0.5497994306804849 0 0 1
132 44 1 0.5897 0.8586663429259366 7.547146415539499 4.72313079891511 0 0 0
166 56 2 -1.1794 8.611853954511112 7.512609208718672 4.842838095876836 0 0 0
145 49 2 -1.1794 9.334297617250353 9.473168042953077 0.20342561501525014 0 0 0
126 42 1 0.5897 4.211033643606989 9.844834905210673 3.6080521433947057 0 0 0
138 46 1 0.5897 6.908161405354365 7.307278745651324 5.111689693620111 0 0 0
131 44 1 0.5897 2.0790268503963873 6.779181372568708 5.184691309510161 0 0 0
463 155 2 -1.1794 1.0348174455337456 8.557491042185035 9.062251257022407 0 0 0
344 115 1 0.5897 1.013423872404597 5.469385511773211 8.933379230240787 0 0 0
345 115 1 0.5897 0.8039616572584216 6.920428433583613 8.555862637372648 0 0 0
25 9 2 -1.1794 2.484731003838491 5.498831562633926 6.387736013970368 0 0 0
339 113 1 0.5897 3.7859820400509756 6.143046055486989 7.557488165470752 0 0 0
61 21 2 -1.1794 8.840564761370912 5.408746094518042 6.635821635043675 0 0 0
468 156 1 0.5897 4.5696509324995525 9.062474453055062 7.58288723003506 0 0 0
433 145 2 -1.1794 2.754712114950169 9.208123363533646 6.758740869868729 0 0 0
437 146 1 0.5897 4.368287482686881 7.44273742913817 9.750833278408303 0 0 0
343 115 2 -1.1794 0.6255556660991797 6.027865423108092 8.259641792369337 0 0 0
464 155 1 0.5897 1.7503428834567953 8.931339138283215 8.547890006513946 0 0 0
435 145 1 0.5897 2.471145313833653 8.70807906013483 5.993370303067014 0 0 0
26 9 1 0.5897 1.7340167129231336 5.619550939587685 6.9692521856441765 0 0 0
136 46 2 -1.1794 6.017344786452415 7.186009921411526 5.440439910405381 0 0 0
467 156 1 0.5897 5.654651946167799 8.336310557544683 6.816394162069037 0 0 0
466 156 2 -1.1794 5.520610274185348 8.975498653766588 7.516186039669209 0 0 0
380 127 1 0.5897 7.273066131628284 6.727368557837475 8.939168060500757 0 0 0
337 113 2 -1.1794 4.187044979669182 6.184604624735846 8.425643034257604 0 0 0
338 113 1 0.5897 5.121813809540995 6.055692678596106 8.26462930167284 0 0 0
168 56 1 0.5897 8.84096517394379 8.216395937808851 5.449827537868833 0 0 0
167 56 1 0.5897 8.725628273309974 6.7100712319817095 5.351978448947733 0 0 0
500 167 1 0.5897 8.0807391321797 9.168405421244032 9.491103638765438 0 0 0
62 21 1 0.5897 8.148359015330856 5.6178255395365335 7.263056950769741 0 0 0
137 46 1 0.5897 5.955632892316766 6.249085715180586 5.626396148071322 0 0 0
379 127 2 -1.1794 7.057881161112675 5.846349717648808 8.632985165178795 0 0 0
499 167 2 -1.1794 7.831844607382658 8.450306003591761 8.909187174551 0 0 0
501 167 1 0.5897 6.930542093741865 8.64874711669969 8.655010922117064 0 0 0
470 157 1 0.5897 8.777266215277189 9.010028053333517 7.338962052883652 0 0 0
469 157 2 -1.1794 9.283915848839076 9.480276798131761 6.676814856006002 0 0 0
381 127 1 0.5897 7.292297107351895 5.274369696083438 9.363835464608725 0 0 0
63 21 1 0.5897 9.642356852191353 5.732624598219711 7.0463646475281685 0 0 0
465 155 1 0.5897 0.24160279413782154 8.813161839709887 8.591371529481165 0 0 0
351 117 1 0.5897 2.98643740217571 5.3155180478407 14.198391784431287 0 0 0
492 164 1 0.5897 8.313185428676281 7.478465801945197 11.674008260113474 0 0 0
668 223 1 0.5897 1.0587868637658389 5.51151838566236 14.978785664863734 0 0 0
491 164 1 0.5897 9.782857702815061 7.703065327205677 11.388017866092598 0 0 0
456 152 1 0.5897 2.531567456061697 6.595936110155038 12.445724750727706 0 0 0
757 253 2 -1.1794 2.895900857065548 9.09158565164657 14.356562569316758 0 0 0
455 152 1 0.5897 3.0204811340768614 7.594383604812824 11.418099473657184 0 0 0
454 152 2 -1.1794 2.396299120767506 7.49166077748708 12.13652148032864 0 0 0
759 253 1 0.5897 2.7375505032586624 8.402305895658397 13.71152787435424 0 0 0
792 264 1 0.5897 4.747206804640568 9.155780252556896 14.683504568028034 0 0 0
462 154 1 0.5897 5.8163471137994245 7.646080205939731 11.705501896561874 0 0 0
436 146 2 -1.1794 4.534257203284315 7.885760790138771 10.582961723785088 0 0 0
533 178 1 0.5897 0.5660008990690072 7.7454101754462705 12.20037299227632 1 0 0
790 264 2 -1.1794 5.6643449997348965 9.186948879073626 14.411073892594539 0 0 0
791 264 1 0.5897 6.155887153617418 8.938786619433296 15.194056520151385 0 0 0
385 129 2 -1.1794 8.838941030931812 5.434312025561782 13.892032143502496 0 0 0
333 111 1 0.5897 5.822306229425218 5.529394877121289 12.853823340509246 0 0 0
460 154 2 -1.1794 6.479519719834434 7.484332463651227 12.376568590220241 0 0 0
793 265 2 -1.1794 9.527490108099355 8.5628644650408 14.17548371700871 0 0 0
387 129 1 0.5897 8.835899082423248 5.904405773564076 13.058219076055424 0 0 0
461 154 1 0.5897 6.184866083880109 7.992293614539373 13.132483319933359 0 0 0
490 164 2 -1.1794 9.179616516159351 7.098970061486083 11.820959290698317 0 0 0
794 265 1 0.5897 9.312555019021097 8.065286157550574 13.386516680726062 0 0 0
349 117 2 -1.1794 2.184265347161308 5.160133639350926 13.699700133442564 0 0 0
705 235 1 0.5897 7.536590896866938 5.580980474003179 15.073389954096852 0 0 0
758 253 1 0.5897 2.92364127899074 9.898960664169703 13.843121522896556 0 0 0
438 146 1 0.5897 4.202449680927804 8.774058406163707 10.45226336686567 0 0 0
795 265 1 0.5897 9.48638091674367 9.478719046461341 13.9002390222748 0 0 0
661 221 2 -1.1794 4.395192767036463 5.886748566659163 15.239227411202855 0 0 0
787 263 2 -1.1794 0.7546571110392554 8.575512133642079 16.175328116957758 0 0 0
667 223 2 -1.1794 0.42091114586723954 5.706142155573809 15.66545410716748 0 0 0
762 254 1 0.5897 5.2901643363132695 8.016356893025666 17.59310295391459 0 0 0
823 275 2 -1.1794 7.626314325277296 8.377449389097409 16.39839112636846 0 0 0
780 260 1 0.5897 3.1522044509246427 7.448905639956809 18.0679928295678 0 0 0
675 225 1 0.5897 2.636063632561816 5.77916702562656 19.746459883798977 0 0 0
779 260 1 0.5897 2.5190450605409733 8.200724168664738 19.21944932999662 0 0 0
761 254 1 0.5897 4.256246580603305 9.028617461471148 17.1477182146891 0 0 0
760 254 2 -1.1794 4.539865427327587 8.125043360899696 17.0086795285562 0 0 0
778 260 2 -1.1794 2.484319144873134 7.367876365179355 18.7489200278836 0 0 0
704 235 1 0.5897 6.136623550936005 5.947218406694025 15.518420843755703 0 0 0
663 221 1 0.5897 4.461696458962753 6.630075008135585 15.838631035514462 0 0 0
785 262 1 0.5897 5.965871857462057 6.683681765339657 19.3735071241135 0 0 0
784 262 2 -1.1794 6.180544384294655 7.5860329971684095 19.137121769669058 0 0 0
814 272 2 -1.1794 8.931984765669236 7.193102763923768 18.958254556743277 0 0 0
786 262 1 0.5897 7.1351847566799425 7.595140179995171 19.066925893985854 0 0 0
816 272 1 0.5897 9.192272485117764 7.916738164994746 19.52819684441443 0 0 0
662 221 1 0.5897 4.129764624260476 5.153662845567103 15.794550089811926 0 0 0
788 263 1 0.5897 0.8285869909910065 9.25117322871232 16.849320093248537 0 0 0
815 272 1 0.5897 9.140291911074879 6.405254062466839 19.46038984755546 0 0 0
825 275 1 0.5897 7.314958810043098 7.475404324817249 16.473338488335656 0 0 0
673 225 2 -1.1794 2.4479132778779116 5.236481513156817 20.51219260014166 0 0 0
703 235 2 -1.1794 7.021086147191295 5.7944937730071375 15.851164765630994 0 0 0
858 286 1 0.5897 0.49023069766982047 7.305147539211041 18.34852959577058 1 0 0
144 48 1 0.5897 5.408740720102084 8.483520369504172 20.480486548669823 0 0 -1
669 223 1 0.5897 0.4689348052217818 6.655785860972163 15.775452915065195 0 0 0
804 268 1 0.5897 7.834786917317683 9.99841841372556 17.187964534911096 0 0 0
789 263 1 0.5897 1.5432290982606647 8.680353348580196 15.642898431313867 0 0 0
824 275 1 0.5897 8.422032438960972 8.313597952981517 15.870114518123728 0 0 0
109 37 2 -1.1794 2.3506629792552403 9.55605507696004 20.510629445149647 0 0 -1
240 80 1 0.5897 2.643233114053314 14.065616568632308 4.211661874406849 0 0 0
129 43 1 0.5897 0.7870089769111677 13.80802826534481 2.401106183751726 0 0 0
120 40 1 0.5897 1.1943402246044712 11.621489049265401 3.456904805370142 0 0 0
118 40 2 -1.1794 1.4257738567211837 10.881592364425813 4.018354913922622 0 0 0
246 82 1 0.5897 5.341128796658334 14.05195492187322 4.534328379732396 0 0 0
127 43 2 -1.1794 0.7368828936561265 12.874231488988059 2.1967975637373867 0 0 0
119 40 1 0.5897 2.3739671757206118 10.95190907535721 4.1293579427603175 0 0 0
122 41 1 0.5897 4.810086692724978 12.036020985079302 2.376160568214019 0 0 0
220 74 2 -1.1794 4.179260186956327 14.690552793017794 3.355498991239832 0 0 0
317 106 1 0.5897 0.15400237655835555 14.024062021952188 5.061253510939995 1 0 0
819 273 1 0.5897 8.347552128930776 12.502043994510895 0.7158629345323185 0 0 1
123 41 1 0.5897 4.344261880076713 12.433664810845245 0.9916662970913526 0 0 0
783 261 1 0.5897 2.111304142343236 12.545048049189338 0.8074502135078662 0 0 1
124 42 2 -1.1794 4.187074019812063 10.748329142092526 3.923273757086158 0 0 0
121 41 2 -1.1794 5.075069505230561 12.5326128673691 1.6019324589968347 0 0 0
125 42 1 0.5897 4.817140961566305 10.76798527232956 4.643613405653354 0 0 0
165 55 1 0.5897 7.8616841735012155 12.249210014764166 3.0841299269821074 0 0 0
276 92 1 0.5897 9.357405612480546 14.285952432351976 4.605454148173218 0 0 0
164 55 1 0.5897 6.778658694023523 12.806089704231596 2.184694604822066 0 0 0
222 74 1 0.5897 4.233907774669582 14.431632068400969 2.435592476661833 0 0 0
163 55 2 -1.1794 7.7177782109019475 12.860676838360307 2.361882861390708 0 0 0
156 52 1 0.5897 9.094020441732669 10.766400260917393 4.015029128004306 0 0 0
154 52 2 -1.1794 8.140240913828855 10.716375037775551 4.079403761222394 0 0 0
285 95 1 0.5897 7.6991144494539405 14.68190648224463 2.336744465594309 0 0 0
238 80 2 -1.1794 1.8999880698972549 13.857757672201098 4.777956350087139 0 0 0
244 82 2 -1.1794 6.080727842667316 13.946867869153532 5.1328623090369865 0 0 0
781 261 2 -1.1794 2.786816362093275 12.248883160430479 0.1973344982303826 0 0 1
155 52 1 0.5897 7.89515560096546 10.016994764906222 3.473557592401331 0 0 0
188 63 1 0.5897 0.0564749110866849 11.171446895842244 5.18979767744575 1 0 0
275 92 1 0.5897 7.894396357887022 14.197743456149238 4.9848782457640395 0 0 0
133 45 2 -1.1794 2.661944304859761 11.965788307744852 6.698478010095833 0 0 0
134 45 1 0.5897 1.9715915368710868 12.022629099363616 7.359138909038343 0 0 0
135 45 1 0.5897 3.472160152098038 12.12145935862948 7.1838909401153 0 0 0
453 151 1 0.5897 0.9213901632225203 12.178600452929189 9.622372700764169 0 0 0
451 151 2 -1.1794 0.9299163008916325 12.696262529468624 8.81726758585073 0 0 0
450 150 1 0.5897 3.97399615767672 11.231133558082073 9.963692001976916 0 0 0
573 191 1 0.5897 0.9274235862421378 14.63422683892313 8.889317079689205 0 0 0
434 145 1 0.5897 2.6396737930990715 10.123454615233886 6.503467479905687 0 0 0
446 149 1 0.5897 4.598586902410896 13.019730539294095 8.927052402706497 0 0 0
169 57 2 -1.1794 9.363168928846056 12.134006584867556 7.219240781746886 0 0 0
170 57 1 0.5897 9.172625343148342 12.813674751527593 6.5727207923656294 0 0 0
245 82 1 0.5897 5.946591377546134 13.087035154105985 5.531475722969111 0 0 0
445 149 2 -1.1794 4.794046002624849 12.190745839597003 8.490221526808483 0 0 0
452 151 1 0.5897 0.0073697266528043315 12.779768938590689 8.575861870667026 0 0 0
117 39 1 0.5897 5.883916905538358 10.519869234289601 6.623346270821314 0 0 0
447 149 1 0.5897 5.74992768842326 12.160634435974139 8.449108444039567 0 0 0
171 57 1 0.5897 9.15987664477853 11.312897424892004 6.771245925951025 0 0 0
489 163 1 0.5897 7.546460632781504 13.53111623003569 9.229791954327093 0 0 0
488 163 1 0.5897 8.198260875321136 12.4286289395177 8.422566979473997 0 0 0
487 163 2 -1.1794 7.49875805596126 12.591138152999513 9.055474657357133 0 0 0
443 148 1 0.5897 0.9720955013975404 10.05702541788599 10.23005601010534 0 0 0
115 39 2 -1.1794 6.074055233697737 11.19002788494426 5.966852932682404 0 0 0
239 80 1 0.5897 2.1960684623108864 13.11061241046477 5.297920135846727 0 0 0
480 160 1 0.5897 7.943862629193006 11.192407180890084 10.220440076853567 0 0 0
274 92 2 -1.1794 8.77603250956183 14.166019596478245 5.356394400105282 0 0 0
544 182 2 -1.1794 4.159815660887099 14.425495975182818 10.018977818295658 0 0 0
116 39 1 0.5897 6.861950124959149 10.875183918123753 5.523687820396046 0 0 0
457 153 2 -1.1794 2.4465711803124277 11.897100292492432 13.352184311091813 0 0 0
458 153 1 0.5897 1.6560574993049115 12.067753861361382 13.86430262740881 0 0 0
459 153 1 0.5897 3.1673426136404514 12.08776784557608 13.952539175513136 0 0 0
562 188 2 -1.1794 1.9729609043916765 14.042978672166027 11.553978312767237 0 0 0
563 188 1 0.5897 2.1022172477094747 13.290052635324045 12.130706064311509 0 0 0
449 150 1 0.5897 4.335745467923151 10.947256137112324 11.406078519166613 0 0 0
441 147 1 0.5897 6.041132540224467 10.639453495596907 13.330788443184629 0 0 0
448 150 2 -1.1794 3.792375020479526 10.628897410288532 10.685196954420356 0 0 0
444 148 1 0.5897 1.805629321161834 10.875896922803662 11.192678889878307 0 0 0
600 200 1 0.5897 8.888637604522668 14.595404753644607 12.529018581410211 0 0 0
564 188 1 0.5897 2.294732838494592 14.789928981910213 12.058735811777261 0 0 0
442 148 2 -1.1794 0.9325919133268334 10.822205116913606 10.803786499482221 0 0 0
546 182 1 0.5897 4.758951751444423 14.42125465350788 10.76549628724845 0 0 0
770 257 1 0.5897 5.5389496195519135 12.259304999704693 15.315256332920374 0 0 0
769 257 2 -1.1794 4.5849019277915115 12.233843677005726 15.38911891356144 0 0 0
479 160 1 0.5897 8.82147967825859 10.548064419444229 11.2723850468426 0 0 0
570 190 1 0.5897 6.74242897983218 14.387676008600243 11.887181463871826 0 0 0
439 147 2 -1.1794 6.049127774236953 11.202620594865333 12.556912168525665 0 0 0
493 165 2 -1.1794 9.26263220804839 11.372257556748334 13.359692996254896 0 0 0
440 147 1 0.5897 6.7961451376592805 10.894686251496934 12.04367417432742 0 0 0
598 200 2 -1.1794 8.660666599992512 13.982489577677423 11.83000740189869 0 0 0
568 190 2 -1.1794 5.8615516623517 14.166492973958192 12.18960119934918 0 0 0
494 165 1 0.5897 8.418816582525084 11.537005361709573 13.780598449710407 0 0 0
599 200 1 0.5897 8.790243513108468 13.1170780917135 12.217950921960933 0 0 0
569 190 1 0.5897 5.887073252420592 13.220197118639073 12.33141168063694 0 0 0
478 160 2 -1.1794 8.005879495426733 10.423418405983984 10.787038994230025 0 0 0
775 259 2 -1.1794 0.7222977824171328 12.644206850408157 15.384981383793706 0 0 0
811 271 2 -1.1794 7.345198313752253 12.478635971839081 15.218412916226358 0 0 0
495 165 1 0.5897 9.9032188347106 11.792669816949608 13.933446009127845 0 0 0
545 182 1 0.5897 3.3307746196880204 14.105476210650796 10.374747476070715 0 0 0
888 296 1 0.5897 2.4198932478979236 13.245602283321897 19.06749739911703 0 0 0
768 256 1 0.5897 1.1455311592428834 11.588795558068961 16.819946953626186 0 0 0
773 258 1 0.5897 2.9042862956336486 10.839336666865153 17.44842139984629 0 0 0
766 256 2 -1.1794 1.2239183785129224 10.95566735989372 17.533567096100995 0 0 0
767 256 1 0.5897 0.5440772841512347 11.211388348972436 18.15702725706646 0 0 0
886 296 2 -1.1794 2.1372206036595913 14.007669297101748 18.561924720140354 0 0 0
868 290 2 -1.1794 4.161184428943608 14.473018803518586 16.883747720117725 0 0 0
812 271 1 0.5897 7.493537489075591 13.333662879753353 15.622293741646399 0 0 0
774 258 1 0.5897 4.123303144954103 11.241223140594894 16.64558449432179 0 0 0
924 308 1 0.5897 9.306419333564488 13.957183362409632 17.99954460310552 0 0 0
777 259 1 0.5897 0.7821211605696601 13.58140298738985 15.570204788771248 0 0 0
764 255 1 0.5897 5.081249374151802 10.786404748143562 18.785269285425606 0 0 0
772 258 2 -1.1794 3.8508517847742656 10.708104914946531 17.39244232385643 0 0 0
870 290 1 0.5897 4.7773941019853545 14.228443703382762 17.57422563068851 0 0 0
765 255 1 0.5897 5.624571964933649 10.50826969066805 20.17068982892807 0 0 0
893 298 1 0.5897 6.819371781527549 13.862156096222432 18.90911350629105 0 0 0
923 308 1 0.5897 8.953864815368856 14.764043351953518 19.231041762218126 0 0 0
817 273 2 -1.1794 8.901268021822426 12.193598521825555 20.542507388981633 0 0 0
763 255 2 -1.1794 5.740804898394503 11.081615278559715 19.413051031153692 0 0 0
892 298 2 -1.1794 5.86509303004353 13.802876176731443 18.955841596641626 0 0 0
894 298 1 0.5897 5.687764710754986 12.868684851798537 19.065755677054703 0 0 0
813 271 1 0.5897 7.525528366310985 11.848979433757396 15.916436851020812 0 0 0
802 268 2 -1.1794 8.048936378682477 10.847074871741686 17.5754798323093 0 0 0
818 273 1 0.5897 8.932405791907133 12.928669656778304 19.93018516444949 0 0 0
803 268 1 0.5897 7.463585169417605 10.921277346563183 18.32922783143195 0 0 0
922 308 2 -1.1794 8.689021221244534 13.992519863612273 18.7301973549569 0 0 0
771 257 1 0.5897 4.353922207746311 13.065662027387418 15.80256959454357 0 0 0
869 290 1 0.5897 3.297711205498745 14.315909634440505 17.265916270724006 0 0 0
965 322 1 0.5897 0.3590674578124623 14.008667919273424 18.954039056436322 1 0 0
810 270 1 0.5897 9.760397996567127 10.794132601144698 17.440886016183832 0 0 0
887 296 1 0.5897 2.1076265223170343 14.721070151413898 19.199440607735255 0 0 0
146 49 1 0.5897 9.165602102920985 10.403519707042658 20.5982796787252 0 0 -1
782 261 1 0.5897 2.5932847278246207 11.322101744290338 20.600400798256548 0 0 0
252 84 1 0.5897 5.394754350104091 14.911503088015676 20.511479138705933 0 0 -1
271 91 2 -1.1794 7.40479505240789 19.04448551963961 1.814004517243041 0 0 0
228 76 1 0.5897 1.0338845064346989 17.679748923107606 4.750102891233303 0 0 0
229 77 2 -1.1794 4.697883448677848 18.901015356621937 1.5321037728141862 0 0 0
283 95 2 -1.1794 7.717927588628322 15.606684756881725 2.0904424760678784 0 0 0
249 83 1 0.5897 1.8919017487959215 15.588188627263673 1.5097307953360808 0 0 0
233 78 1 0.5897 4.4211277877346635 17.782409327894243 2.794107642201608 0 0 0
221 74 1 0.5897 4.233164828366926 15.646103886043536 3.3394648962625273 0 0 0
230 77 1 0.5897 4.485868265637233 18.647458207782027 0.6337622074583109 0 0 0
235 79 2 -1.1794 0.8693744762167727 18.946961001776707 1.648766744512463 0 0 0
247 83 2 -1.1794 1.243213941322374 15.568319338928037 2.213348914018644 0 0 0
248 83 1 0.5897 1.4795064425937865 16.303903942831568 2.7784434178092137 0 0 0
227 76 1 0.5897 1.2775396868404119 18.258838655368574 3.3727018962642776 0 0 0
234 78 1 0.5897 3.4699757341789903 17.605320762711514 3.9585650999943773 0 0 0