LAMMPS data file via write_data, version 30 Jul 2021, timestep = 16250000

864 atoms
2 atom types
576 bonds
1 bond types
288 angles
1 angle types

0.7564012219672769 17.451171178026065 xlo xhi
1.9824719970297497 21.64670580296258 ylo yhi
0.9228077240479351 21.290388075951213 zlo zhi

Masses

1 1.00794
2 15.9994

Pair Coeffs # lj/cut/tip4p/long/omp

1 0 0
2 0.21084 3.1668

Bond Coeffs # harmonic/omp

1 450 0.9572

Angle Coeffs # harmonic/omp

1 55 104.52

Atoms # full

319 1 2 -1.1794 3.134408829245814 4.705771207908722 3.500764783813949 -1 -5 2
79 1 2 -1.1794 1.3702857722959112 6.224524415503726 1.8973166155624648 -3 1 -7
823 1 2 -1.1794 1.126681943066273 2.5678728654258665 5.738998847905129 -3 7 6
320 1 1 0.5897 3.9202611185887437 4.391277150597455 3.0537070666999804 -1 -5 2
321 1 1 0.5897 3.4639074780063357 5.295430265083409 4.179051860221272 -1 -5 2
189 1 1 0.5897 1.4299824156905876 5.111063719421767 5.499881528041519 -10 7 1
81 1 1 0.5897 1.9754421794077255 5.65953071874277 2.377850138099621 -3 1 -7
102 1 1 0.5897 2.2340309930491493 3.0523015179767325 1.6398529378004267 2 -3 -4
824 1 1 0.5897 1.5935864090474605 2.470934330791602 4.908978880419346 -3 7 6
80 1 1 0.5897 0.9357397485750197 6.742212589975776 2.575175093840767 -3 1 -7
518 1 1 0.5897 2.253820433398729 3.512510375834975 10.09706076128785 4 1 -2
553 1 2 -1.1794 4.552203117116218 5.715746650531482 10.810190157475827 -2 -3 6
55 1 2 -1.1794 1.530951504075189 6.8226972855536925 8.894217463765095 -7 -3 0
644 1 1 0.5897 3.394721934930683 5.212005823065299 7.333112069032193 5 -4 -6
643 1 2 -1.1794 2.599026314906685 4.706036362251573 7.168230579977423 5 -4 -6
645 1 1 0.5897 2.9131007445311363 3.8716334832064336 6.819734801750153 5 -4 -6
638 1 1 0.5897 4.6230188742714935 2.6540624222491163 6.82429613696954 -11 1 1
554 1 1 0.5897 4.101227100607252 6.554354392723257 10.711800412328962 -2 -3 6
520 1 2 -1.1794 4.373337913124647 6.598468079608837 8.170518442861042 -4 1 0
57 1 1 0.5897 1.944402187551635 6.461919716226425 8.10983388077005 -7 -3 0
521 1 1 0.5897 4.573788725718607 6.291272916737692 9.054701544017588 -4 1 0
517 1 2 -1.1794 3.035425720480655 3.4496159448683485 10.64615069982962 4 1 -2
637 1 2 -1.1794 3.8209081214041407 2.2403796683407977 6.505152807757881 -11 1 1
647 1 1 0.5897 1.3043727883854577 4.260185801127637 8.422655968929934 -7 4 -5
519 1 1 0.5897 3.378892752144012 4.34255552440463 10.67790093434938 4 1 -2
646 1 2 -1.1794 0.7778997167163482 4.022435863333186 9.185953732587159 -7 4 -5
825 1 1 0.5897 1.7415136268738323 2.247423961004948 6.399078213405351 -3 7 6
415 1 2 -1.1794 0.8403920156298738 6.782374613653031 11.951896852219487 7 -5 1
800 1 1 0.5897 4.4727075935717515 3.682913835179395 14.232595405664778 5 -5 1
416 1 1 0.5897 1.064339786528822 6.03383397298566 11.398850076514078 7 -5 1
386 1 1 0.5897 1.9356559032095424 3.8645034410047323 13.527401311419734 3 2 0
395 1 1 0.5897 2.6757737458373017 2.4922414960198194 12.108211937390852 10 0 4
526 1 2 -1.1794 3.581131909351556 2.4881603591976784 15.49742652094751 -2 -3 6
385 1 2 -1.1794 1.1827711079709877 4.354252418395546 13.858511440153402 3 2 0
801 1 1 0.5897 4.1714730734914145 5.102870883402602 13.802363080263484 5 -5 1
528 1 1 0.5897 2.8104304398239477 2.9323295275485908 15.85108955890669 -2 -3 6
799 1 2 -1.1794 4.551739494868885 4.281796318023137 13.490018371375585 5 -5 1
130 1 2 -1.1794 4.468523587042469 3.4326877719628737 18.66047015658556 2 3 1
45 1 1 0.5897 4.435292664032222 4.7463025942367985 20.08277155985821 -2 11 -3
424 1 2 -1.1794 1.6347912185927107 3.9726478275441846 16.855948498873524 3 -5 -1
44 1 1 0.5897 3.6737529485803173 6.05479871765672 20.084655394080766 -2 11 -3
43 1 2 -1.1794 4.1955537401987435 5.4818195399147065 20.646559438998356 -2 11 -3
465 1 1 0.5897 2.2413482136219423 2.4616724818792535 19.508259822831228 5 7 3
131 1 1 0.5897 3.785561952124647 3.1367276174204886 18.058557466241176 2 3 1
100 1 2 -1.1794 2.092578663366643 3.5131311226864987 21.18041308881151 2 -3 -5
425 1 1 0.5897 1.383057483052827 3.2966266191596416 17.48519670827631 3 -5 -1
426 1 1 0.5897 0.9874222016030604 4.667166389781319 16.978019205129513 3 -6 -1
764 1 1 0.5897 2.936847736200174 5.155515355046433 16.384213286972138 -4 2 -5
765 1 1 0.5897 3.5303510769019906 6.343888734964709 17.110621687521327 -4 2 -5
101 1 1 0.5897 2.674225385861113 4.2720379283029395 21.22601051934605 2 -3 -5
132 1 1 0.5897 4.825673283070855 2.6265901834620347 19.033280790828247 2 3 1
621 1 1 0.5897 2.0558244897709423 6.811142753102048 18.450559362545405 -3 -2 -1
763 1 2 -1.1794 3.36251038512309 5.99953439571864 16.233347918214452 -4 2 -5
328 1 2 -1.1794 3.42120328926979 8.08694871068279 2.1077140106728516 3 5 -2
329 1 1 0.5897 2.7965088725350036 8.811567736679752 2.139410524662188 3 5 -2
485 1 1 0.5897 2.0985616673149963 7.774452612425144 5.378560621580172 3 0 -3
710 1 1 0.5897 3.697945978375884 7.378984241031789 3.7900391226787997 -2 -6 2
486 1 1 0.5897 1.8981518672849098 9.270358625204228 5.25923507704217 3 0 -3
709 1 2 -1.1794 3.6853108371983647 7.0084496340082385 4.672575021643371 -2 -6 2
53 1 1 0.5897 1.4223662459331867 10.26730045404451 2.208944239560746 -3 -2 4
484 1 2 -1.1794 1.747503646109037 8.531033032073744 5.848332102390903 3 0 -3
711 1 1 0.5897 4.1782134247954055 7.6346729119434285 5.2028687871030455 -2 -6 2
330 1 1 0.5897 2.965513776285784 7.398240472479628 1.6235342098105796 3 5 -2
727 1 2 -1.1794 1.7449311351667536 10.593054496955956 4.130797483208287 1 1 3
729 1 1 0.5897 2.5372035516843923 11.130261661639683 4.137493695293491 1 1 3
728 1 1 0.5897 1.1597085663062325 11.020673932242671 4.756093363637817 1 1 3
52 1 2 -1.1794 1.3714108601710895 9.784859069909416 1.383718884961321 -3 -2 4
4 1 2 -1.1794 4.203959545111209 11.67355132319836 3.6724399716463165 -2 1 -3
6 1 1 0.5897 4.765397447207912 10.983760061040853 3.318429341565384 -2 1 -3
42 1 1 0.5897 4.6398106395767 9.129973715143183 6.878055626358601 -2 -5 4
247 1 2 -1.1794 3.105208098222479 9.58124168681 7.997376132738004 2 0 -2
827 1 1 0.5897 3.8200657384162495 8.698953846262569 11.077853393745993 -7 -2 4
249 1 1 0.5897 2.7444330712469895 8.987228104665974 7.339114850376595 2 0 -2
248 1 1 0.5897 2.452241102035101 10.276703434745983 8.076671155552578 2 0 -2
828 1 1 0.5897 3.5677743890203244 8.618583950406421 9.5871985006085 -7 -2 4
826 1 2 -1.1794 3.41137196387922 8.151017626116868 10.40773969640359 -7 -2 4
56 1 1 0.5897 2.241588081253201 7.265747327427608 9.357929865708133 -7 -3 0
455 1 1 0.5897 2.087979862161111 11.740589279486796 10.538909423692546 2 -4 1
752 1 1 0.5897 3.6582395598161845 8.661689276729206 13.446955205996659 3 -1 -1
751 1 2 -1.1794 3.917616459797149 9.57010456938333 13.601465736725157 3 -1 -1
864 1 1 0.5897 4.767445688750693 11.136969125974773 13.073880293402642 7 1 0
753 1 1 0.5897 3.110162645881213 10.00760558216601 13.871532394059958 3 -1 -1
451 1 2 -1.1794 1.6299297412109635 10.946468375690275 14.225792888010877 1 0 2
452 1 1 0.5897 1.687335541310439 11.388319452747728 13.378560861988031 1 0 2
454 1 2 -1.1794 2.3498697413027894 11.633763222115247 11.453414560182692 2 -4 1
147 1 1 0.5897 4.509021159099743 9.443787915664785 15.577029039224357 -4 -3 -4
722 1 1 0.5897 1.1873970095167166 8.197774336920181 15.801737521665416 4 -2 1
450 1 1 0.5897 0.8440880865281125 11.570846839404968 15.753666481303677 7 -6 -3
453 1 1 0.5897 0.7978004283970423 10.474347240778844 14.19435564960552 1 0 2
417 1 1 0.5897 0.8667156520974728 7.534357484113427 11.360163935241232 7 -5 1
456 1 1 0.5897 3.3060591809636732 11.59747833056293 11.426568517459154 2 -4 1
658 1 2 -1.1794 3.079402607099484 7.11284421410273 13.464025519814633 0 5 -1
317 1 1 0.5897 1.1811088197876995 9.977148544179066 11.111341142854588 -5 -5 -2
659 1 1 0.5897 2.222011695294973 6.991250553589052 13.056070635303804 0 5 -1
660 1 1 0.5897 2.9075683472852614 7.059469702235641 14.404207843519115 0 5 -1
145 1 2 -1.1794 4.091657095537103 9.28229458001967 16.423224779769956 -4 -3 -4
744 1 1 0.5897 0.9737293348364631 10.108076343027724 19.216795807598494 -4 0 -3
69 1 1 0.5897 3.0711644017612976 9.789313722464897 20.60388020026873 5 -8 -4
620 1 1 0.5897 3.0222545846047395 7.962618558985828 18.630071717713324 -3 -2 -1
146 1 1 0.5897 4.728196147141139 8.757246264221127 16.908479116797036 -4 -3 -4
619 1 2 -1.1794 2.9637401554085523 7.00851586058423 18.68089397775605 -3 -2 -1
68 1 1 0.5897 4.379573133487796 10.10567526193074 19.91092282213264 5 -8 -4
723 1 1 0.5897 2.3408515746083784 9.042222116829262 16.300305036876075 4 -2 1
303 1 1 0.5897 3.829661840505535 11.021931319833957 16.822057577607318 2 3 1
67 1 2 -1.1794 3.496050340913832 9.776109540808942 19.74618364917382 5 -8 -4
721 1 2 -1.1794 1.3894214935764182 8.952260815781681 16.355148420805314 4 -2 1
663 1 1 0.5897 2.517187128152712 11.456643244693483 19.34425525591791 2 -4 -4
661 1 2 -1.1794 1.8059912480318199 11.806169617499414 18.80725517327217 2 -4 -4
496 1 2 -1.1794 0.8336257030704598 15.844555942024016 1.5791812040165492 -1 0 3
434 1 1 0.5897 4.112592111807318 12.417485718916987 1.6456841218244125 -4 1 -4
515 1 1 0.5897 2.01237427427228 12.768706854843831 1.830152806730148 1 -12 1
596 1 1 0.5897 1.906653489308463 14.119905333572747 5.423730720540014 -2 -10 -2
265 1 2 -1.1794 3.9797587316757563 15.579729250633635 2.202928588186669 -3 -4 2
498 1 1 0.5897 1.06619475308832 16.148594575581253 2.4565636259440593 -1 0 2
535 1 2 -1.1794 3.4218425575971927 14.929977342394032 4.9987209120836065 3 5 4
537 1 1 0.5897 4.020213597380774 15.017876855004532 4.256732846236304 3 5 4
5 1 1 0.5897 4.699361700735298 12.031759074370466 4.409050264341769 -2 1 -3
588 1 1 0.5897 2.005420746987764 16.19294466708655 4.488038594521859 -7 0 10
536 1 1 0.5897 3.9498517358439718 15.164533606486206 5.761944302100331 3 5 4
266 1 1 0.5897 3.9215942331517577 15.46148381671641 1.2547951944626603 -3 -4 2
595 1 2 -1.1794 1.0374475672591084 13.867314197648051 5.735173096260901 -3 -10 -2
586 1 2 -1.1794 1.2538559334698705 16.601728233734768 4.058619198713736 -7 0 10
267 1 1 0.5897 4.578610707522238 16.31784631888118 2.3164489924887723 -3 -4 2
514 1 2 -1.1794 1.1488306013825875 12.948719835877041 2.201931484963297 1 -12 1
516 1 1 0.5897 1.1893782047929908 13.86696122988276 2.469390056837452 1 -12 1
325 1 2 -1.1794 1.5273295335611836 15.25308022398816 10.631055427920577 2 -6 -2
597 1 1 0.5897 0.9365836575614823 14.330359638328659 6.566882416229999 -3 -10 -2
837 1 1 0.5897 0.9051668792968756 14.630282039955873 9.125451421059397 -3 0 -1
745 1 2 -1.1794 4.273256926978849 12.886498483880347 7.989568567082849 3 0 -9
512 1 1 0.5897 3.905007080854134 15.746574729422399 9.454487610397814 -4 7 -1
402 1 1 0.5897 2.4690093418354486 12.405502618677382 8.377885192216358 0 -1 3
401 1 1 0.5897 0.960243254684435 12.284043624424895 8.409222485243731 0 -1 3
511 1 2 -1.1794 3.719083046151426 15.538508333206929 8.53880266113613 -4 7 -1
747 1 1 0.5897 4.0204867741479315 13.695769012388924 8.433999377113462 3 0 -9
746 1 1 0.5897 4.807299022215488 12.417340666949672 8.63067154409961 3 0 -9
513 1 1 0.5897 4.576901881776671 15.537581039268714 8.113970165735395 -4 7 -1
327 1 1 0.5897 1.4382784461905265 16.187564239980517 10.443589194898914 2 -6 -2
326 1 1 0.5897 2.4666511176507884 15.122941879638267 10.761675252759277 2 -6 -2
400 1 2 -1.1794 1.7594601427708798 11.878726888865993 8.745804790865431 0 -1 3
703 1 2 -1.1794 3.056530152206059 13.954754717479371 14.884294261494476 -1 -1 -5
704 1 1 0.5897 2.8834302013834336 13.29166737727919 15.55263535244316 -1 -1 -5
349 1 2 -1.1794 4.229220538822959 16.558469058950926 13.200662330331857 -10 3 -3
843 1 1 0.5897 1.5529958356254752 13.762955668600366 13.49705803963213 -11 2 -2
674 1 1 0.5897 4.269498108783704 13.952007386405496 11.644898147230915 -2 -4 2
350 1 1 0.5897 4.093530801455737 16.21387655454047 14.083373868035874 -10 3 -3
862 1 2 -1.1794 4.837834946851004 12.0832567635577 12.947739921347434 7 1 0
705 1 1 0.5897 3.4401328493598613 13.466651879631439 14.155644394336472 -1 -1 -5
675 1 1 0.5897 4.437412023339302 15.428946009573895 11.93234805560272 -2 -4 2
624 1 1 0.5897 1.1585692526733218 16.59447233002691 15.003411735585752 7 -4 3
673 1 2 -1.1794 4.399832317543886 14.796981032632619 11.214337246597903 -2 -4 2
842 1 1 0.5897 0.9761282535013917 14.485168533773797 12.297988263903981 -11 2 -2
623 1 1 0.5897 0.8472461003044813 15.11448504654688 15.073029744628448 7 -4 3
509 1 1 0.5897 1.1659805728792945 14.695143016383259 20.35621815969744 1 2 -2
301 1 2 -1.1794 3.6984755214624085 11.955624517424853 16.987416395570968 2 3 1
687 1 1 0.5897 1.8679379475618583 16.317405727587435 16.680333846253852 9 -7 0
334 1 2 -1.1794 3.8435524691727143 14.842935676248727 19.706748165793613 4 -2 3
335 1 1 0.5897 3.234693398744036 15.082557985168776 19.008022928530075 4 -2 3
508 1 2 -1.1794 0.9291027959733467 14.342163990429034 19.498537554262008 1 2 -2
685 1 2 -1.1794 2.7529765995507853 16.314633416745927 17.045106621717956 9 -7 0
302 1 1 0.5897 2.950677052505289 11.990969009682926 17.58396784221706 2 3 1
336 1 1 0.5897 4.529621900995256 14.341682797603537 19.265836134943 4 -2 3
662 1 1 0.5897 1.6957151599755935 12.706967702127221 19.11179322392659 2 -4 -4
433 1 2 -1.1794 3.659373896229295 12.309907926343241 21.176998653738146 -4 1 -5
435 1 1 0.5897 3.570238217969743 13.199939018266129 20.836092108443385 -4 1 -5
144 1 1 0.5897 4.622250931870599 15.37917640531424 16.33542639335581 -8 3 7
819 1 1 0.5897 3.136583129031055 18.446967873355128 2.788723293857757 7 0 4
271 1 2 -1.1794 4.067757055578176 18.138010147803264 4.93618508707213 -2 -5 3
279 1 1 0.5897 3.318996893689106 21.206761938489194 3.0987376914035925 4 3 -3
273 1 1 0.5897 4.7395182053675295 17.757648759314584 4.370154008446885 -2 -5 3
818 1 1 0.5897 3.3165496801244196 18.304663574210345 1.292227226459293 7 1 4
817 1 2 -1.1794 3.734629420528462 18.665720342687166 2.0740077719058343 7 1 4
278 1 1 0.5897 1.9019975625741203 20.716183992623414 3.3074356527201823 4 3 -3
587 1 1 0.5897 1.4392233668275551 17.540246842435177 4.092586086169311 -7 0 10
272 1 1 0.5897 4.491457745053111 18.21857778504593 5.79078030632772 -2 -5 3
633 1 1 0.5897 1.040876122166305 21.273446110276637 1.176360172803761 7 4 3
277 1 2 -1.1794 2.412151485820898 21.383435015266862 2.8482663012292173 4 3 -3
347 1 1 0.5897 4.772634602599541 19.882453389328717 4.256827985017729 -4 2 -2
442 1 2 -1.1794 0.9274942651599408 19.447273996113452 3.908627841974359 -3 8 1
639 1 1 0.5897 4.083236522932872 21.464435343178806 5.696591771821378 -11 0 1
346 1 2 -1.1794 4.860096907355492 20.835716894505964 4.261631117818022 -4 2 -2
681 1 1 0.5897 1.9872144018384679 20.19051106775867 8.239776813602711 -2 -7 3
238 1 2 -1.1794 3.4522111744259734 20.809126626090077 9.214090766345098 -6 -5 1
679 1 2 -1.1794 1.1759504621801078 20.280165446727835 7.739587649178514 -2 -7 3
640 1 2 -1.1794 4.452776843765777 18.13942608617824 10.085360372839423 7 3 -3
345 1 1 0.5897 2.615956502214855 17.952103363107994 10.338979059735614 -4 5 0
239 1 1 0.5897 3.8178714392046125 21.116631167727682 8.384591909898377 -6 -5 1
375 1 1 0.5897 2.4782008972103453 16.73483225718524 7.556880982437787 5 9 -1
343 1 2 -1.1794 1.682309508077302 17.862971026599844 10.147441751414531 -4 5 0
344 1 1 0.5897 1.256671697521839 18.49215125359224 10.729928338360704 -4 5 0
240 1 1 0.5897 3.444712867246293 21.584618528112713 9.775230801717168 -6 -5 1
374 1 1 0.5897 2.7397924587605944 17.92125433704408 6.653487139510229 5 9 -1
373 1 2 -1.1794 2.049068673079471 17.320234980882045 6.932800149257547 5 9 -1
362 1 1 0.5897 4.570611115637554 18.42892308627303 8.378812421425561 4 -4 -1
361 1 2 -1.1794 4.9146349357401675 18.53375177197733 7.491670939251702 4 -4 -1
642 1 1 0.5897 4.400773248792351 18.593456926995557 10.926499007978174 7 3 -3
505 1 2 -1.1794 1.4620994112132992 19.688871820460264 15.509277150016878 0 -2 3
784 1 2 -1.1794 4.555786098323159 19.465230995085797 12.933081070817034 6 6 6
283 1 2 -1.1794 1.6131179421998363 17.510198904071633 13.485086975310765 10 -2 -3
786 1 1 0.5897 4.262959852983869 19.04362255719508 13.741077750947214 6 6 6
396 1 1 0.5897 1.7426541840850784 21.048804115702467 12.54921307520525 10 -1 3
293 1 1 0.5897 3.314340951956905 19.231676859144784 15.902028327838122 2 -3 5
284 1 1 0.5897 0.8316489711449337 17.40538001324847 12.94226665656059 10 -2 -3
285 1 1 0.5897 1.5108691398854939 18.37197232786918 13.889090860625505 10 -2 -3
785 1 1 0.5897 3.8847035531082423 20.122444099915967 12.748428018192698 6 6 6
294 1 1 0.5897 4.766985490667154 18.818700868604587 15.795282314520842 2 -3 5
292 1 2 -1.1794 3.8766245327485995 18.46789491526313 15.772446268382337 2 -3 5
351 1 1 0.5897 3.421436310304526 17.031669527016852 13.000955749472723 -10 3 -3
394 1 2 -1.1794 2.5137494312304938 21.54399859948066 12.825819870951973 10 -1 4
527 1 1 0.5897 3.231950554138445 21.55836608064929 14.832940023107469 -2 -4 6
793 1 2 -1.1794 4.763568223461218 17.5777344798046 18.68985132502176 -2 -2 2
464 1 1 0.5897 1.1535484993091567 21.132144864536443 19.15997826220742 5 6 3
507 1 1 0.5897 1.332720132390788 19.098574762396275 16.251687487880424 0 -2 3
686 1 1 0.5897 3.229668183576826 16.960184370721798 16.5232388639432 9 -7 0
707 1 1 0.5897 1.188249037168457 17.561138036366852 20.910656916928186 -3 -6 -11
706 1 2 -1.1794 1.7360886671219404 18.259263794996542 20.551643501038114 -3 -6 -11
463 1 2 -1.1794 1.9152672444656977 21.580451388278327 18.79237229985598 5 6 3
708 1 1 0.5897 1.4618152399408808 19.04597824458076 21.02299489185799 -3 -6 -11
357 1 1 0.5897 0.8070839072929841 18.862713604260023 19.110897080219736 7 -6 7
636 1 1 0.5897 3.54340976697164 20.45823270375444 19.311602981219075 -5 2 5
634 1 2 -1.1794 4.492744708446811 20.350509987797636 19.252366679929413 -5 2 5
794 1 1 0.5897 4.643345618829885 18.494935084542433 18.443667689445338 -2 -2 2
795 1 1 0.5897 3.878288707435522 17.213681949541478 18.69901733457397 -2 -2 2
635 1 1 0.5897 4.783271960725288 20.2782972887587 20.161612174703237 -5 2 5
682 1 2 -1.1794 6.7842697585538545 5.672136826600285 1.5582980508446744 3 -5 -6
592 1 2 -1.1794 7.903562871987527 2.8971826031654695 2.412581933178816 -2 0 -1
594 1 1 0.5897 7.8751451422489005 2.339528788039014 3.1901154274899106 -2 0 -1
593 1 1 0.5897 8.31937843810764 3.705692492249457 2.7121663084791496 -2 0 -1
683 1 1 0.5897 6.8702282934293875 6.141770193422803 2.3879827232877537 3 -5 -6
773 1 1 0.5897 7.643056542494262 6.359607494642019 4.122306634991531 4 -2 0
774 1 1 0.5897 6.283536069175524 5.91465552206588 4.618398348863758 4 -2 0
413 1 1 0.5897 5.515736882441338 3.361021617718439 4.679409158692553 -1 0 9
290 1 1 0.5897 5.964735567777392 3.7408774736627857 2.358198950310163 -2 -3 -5
412 1 2 -1.1794 5.958311966090959 4.113711247778603 5.0717165962816795 -1 0 9
772 1 2 -1.1794 6.763776520970659 6.685260488412449 4.315187322644389 4 -2 0
684 1 1 0.5897 5.847285970814246 5.492476136762358 1.4801694376479895 3 -5 -6
414 1 1 0.5897 6.768810580256839 3.754281302494949 5.432580379997024 -1 0 9
289 1 2 -1.1794 5.130936685582615 3.294687363075591 2.209809776724925 -2 -3 -5
291 1 1 0.5897 5.355822700136974 2.5410120679932113 1.664160393418799 -2 -3 -5
204 1 1 0.5897 7.490975584302359 5.996213208276965 8.813409446364485 -8 -4 2
332 1 1 0.5897 8.697590275999978 3.743893825991341 7.123149583997994 -1 -1 -3
202 1 2 -1.1794 7.188406907674035 6.111433308374568 7.912573162681243 -8 -4 2
545 1 1 0.5897 6.1751791087930865 4.35948113407099 7.989493142680295 -3 5 5
522 1 1 0.5897 5.202869565183759 6.527790807492534 7.698063401334645 -4 1 0
203 1 1 0.5897 7.967254565555015 5.960957022804197 7.3767317611831364 -8 -4 2
546 1 1 0.5897 5.906639772631406 3.2082348851859894 8.935381775964522 -3 5 5
544 1 2 -1.1794 5.689810318340013 3.5376838269700377 8.06313759248134 -3 5 5
331 1 2 -1.1794 8.651581763326892 3.451505082142008 6.212814373473087 -1 -1 -3
724 1 2 -1.1794 8.037803550082337 5.353425874819129 10.167713970252963 7 -2 4
338 1 1 0.5897 8.748313171241282 3.9011251075838227 9.206800627857552 -1 3 1
725 1 1 0.5897 8.610203066558038 5.839942283066282 10.760996092399226 7 -2 4
726 1 1 0.5897 7.603626446953744 4.709523381448383 10.727391666501134 7 -2 4
571 1 2 -1.1794 7.040229630414707 3.537715588524038 12.019692968698887 -6 2 -6
368 1 1 0.5897 7.317494277583004 6.343213624957851 12.776583552405112 5 -2 -6
441 1 1 0.5897 7.739991668320827 4.036377308746491 15.875443113941195 0 -4 0
305 1 1 0.5897 7.225987165408395 2.250449652423902 13.121036144620115 7 1 -4
555 1 1 0.5897 5.069851179967283 5.813930920157157 11.60941432987562 -2 -3 6
439 1 2 -1.1794 8.40230496556918 4.526915791257018 15.388564376311043 0 -4 0
367 1 2 -1.1794 6.4370559521157995 6.718815027636357 12.78493819330993 5 -2 -6
572 1 1 0.5897 6.153036281280554 3.7753755760731633 12.289406363398824 -6 2 -6
21 1 1 0.5897 8.515527424274243 4.948221829785389 13.561551696578523 -4 2 0
573 1 1 0.5897 6.919400266105631 2.8036075149512945 11.417342056620537 -6 2 -6
369 1 1 0.5897 6.176410940716102 6.699005937953793 13.705802677496898 5 -2 -7
440 1 1 0.5897 8.512609217364467 5.338357193106849 15.884287080932443 0 -4 0
306 1 1 0.5897 7.029275029020755 2.055558659050435 14.609471829127353 7 1 -4
83 1 1 0.5897 5.256065692761052 6.550905313553866 15.656429384320923 -5 -1 -6
19 1 2 -1.1794 8.9589580822054 5.56623082558157 12.98038603064263 -4 2 0
84 1 1 0.5897 6.74115152622197 6.361882116606687 15.882084677628894 -5 -1 -6
82 1 2 -1.1794 6.112330804504647 6.8511828612957935 15.351525573997032 -5 -1 -6
616 1 2 -1.1794 7.230457863845044 2.582742841855924 20.064188861572646 1 1 -3
51 1 1 0.5897 8.365690981726315 6.127230627621342 21.010406496545677 2 9 1
234 1 1 0.5897 5.71652442634457 4.667050778655792 18.002625955834976 -6 -2 0
759 1 1 0.5897 9.0254389337686 5.251607006449628 19.135500822437674 1 5 3
856 1 2 -1.1794 6.470246482528824 2.786248527898474 16.500374301141356 3 4 0
232 1 2 -1.1794 6.20612956217196 5.464806792471373 17.802148457611242 -6 -2 0
757 1 2 -1.1794 8.72312380893974 4.545918340857341 18.56370571350226 1 5 3
758 1 1 0.5897 8.28840602572077 3.929241580524428 19.152833256021616 1 5 3
857 1 1 0.5897 5.534946578385918 2.6175682780593177 16.385897249308243 3 4 0
233 1 1 0.5897 7.106960123859795 5.263681124083416 18.055872122423022 -6 -2 0
617 1 1 0.5897 7.307548462511969 2.853299108956241 20.97916619457868 1 1 -3
858 1 1 0.5897 6.774866861263659 2.0759082688209745 17.06512248551871 3 4 0
700 1 2 -1.1794 6.211100030100246 9.532369730381411 3.323818304695748 2 1 2
701 1 1 0.5897 6.074570028818186 8.782427923152321 3.9028420620227915 2 1 2
269 1 1 0.5897 7.70605495743408 10.53233869192825 3.407273038561123 3 4 7
13 1 2 -1.1794 8.520461917046688 8.27491274800991 5.7702206010851596 4 -6 -10
14 1 1 0.5897 7.864646446776638 7.582684486386433 5.686282927610945 4 -6 -10
702 1 1 0.5897 6.062824684189506 9.186216024873755 2.443755881514222 2 1 2
268 1 2 -1.1794 8.442243818522698 11.024423222277557 3.770874000222882 3 4 7
270 1 1 0.5897 8.142105878446955 11.300372422022786 4.63695527049474 3 4 7
125 1 1 0.5897 4.986346032213268 8.15017086431274 1.0106034014033731 -8 -1 2
126 1 1 0.5897 6.243610385006237 7.3081829524261845 1.060503003249173 -8 -1 2
242 1 1 0.5897 8.937290185426376 8.704709641074448 2.4574463940715705 -2 -3 1
10 1 2 -1.1794 7.051071217502006 8.665929534554497 8.999025243772612 -1 5 4
474 1 1 0.5897 7.981555142964415 10.798978360341513 7.612436542852497 5 3 2
472 1 2 -1.1794 7.518228577102031 10.475505412506017 6.8397657140430015 5 3 2
128 1 1 0.5897 8.737149338305546 8.603199242384463 8.910056856575885 0 -3 -2
11 1 1 0.5897 7.051148667797478 7.755214643487999 8.70415513715217 -1 5 4
473 1 1 0.5897 8.050043766631674 9.74206333615464 6.530576215079175 5 3 2
12 1 1 0.5897 6.772976033547115 9.166517313499376 8.231956933718331 -1 5 4
18 1 1 0.5897 5.832537618597513 11.211802918485889 10.464942018448138 -5 11 3
813 1 1 0.5897 6.598092693147562 11.742593548022015 6.098000678375463 -9 4 -4
210 1 1 0.5897 6.087033657619742 8.987039207032847 10.57889464446591 4 2 0
733 1 2 -1.1794 9.029948334911039 11.537372666976488 9.186786061573233 -1 -1 -6
40 1 2 -1.1794 5.27909316630173 8.801464782678988 6.245810711302663 -2 -5 4
41 1 1 0.5897 5.96598214775804 9.46800360284644 6.230637325376492 -2 -5 4
22 1 2 -1.1794 8.093495120002789 11.01685063154407 11.87200291456663 -2 1 3
60 1 1 0.5897 6.638001204725434 8.704337027466599 14.260607608350076 -2 -5 -3
58 1 2 -1.1794 7.276639627813625 9.394131625251138 14.079926206765045 -2 -5 -3
59 1 1 0.5897 7.2545027627075624 9.951448919008037 14.85789156188685 -2 -5 -3
208 1 2 -1.1794 5.719971145249523 9.321658772741596 11.397194561146382 4 2 0
209 1 1 0.5897 5.847644152062297 8.611094466110533 12.02578073842226 4 2 0
767 1 1 0.5897 8.489199928699097 8.14363136209668 12.688958007389793 -5 6 -2
766 1 2 -1.1794 9.060891895637578 8.370334139958095 11.955408781971617 -5 6 -2
24 1 1 0.5897 7.397933662142751 10.392478789416574 12.078594505076682 -2 1 3
23 1 1 0.5897 8.393972677028 11.332115460277793 12.724433603465066 -2 1 3
768 1 1 0.5897 8.90650129691367 9.303852892203949 11.810397874064813 -5 6 -2
611 1 1 0.5897 6.7163272075762634 9.582183082368323 17.17850475496654 6 0 0
782 1 1 0.5897 7.444937953003318 9.436283973451806 20.973043275222416 -7 1 -2
222 1 1 0.5897 7.052523164299864 11.107356146015896 19.704345222922377 -2 -3 4
575 1 1 0.5897 6.019626805604895 8.11161534149197 19.264679536061838 -3 2 -4
220 1 2 -1.1794 6.172998931456668 10.901083508485195 20.021065808821067 -2 -3 4
610 1 2 -1.1794 6.9216926052231615 10.428517521854108 16.781170818685304 6 0 0
574 1 2 -1.1794 5.988293441917665 8.035536111850895 18.31097129452829 -3 2 -4
783 1 1 0.5897 8.818846327782078 9.264040844016144 20.36081937744554 -7 1 -2
475 1 2 -1.1794 8.500151136836793 11.652187030107699 18.732248374009107 1 -3 0
221 1 1 0.5897 6.092957964257509 11.388174646099804 20.841234156997533 -2 -3 4
576 1 1 0.5897 5.9451913878275855 7.093483330314511 18.146656042124373 -3 2 -4
612 1 1 0.5897 7.592017211263257 10.80504065958714 17.3514442876038 6 0 0
124 1 2 -1.1794 5.933580328296119 8.195684273003067 21.247682404607893 -8 -1 1
781 1 2 -1.1794 8.375534748774783 9.57276608649218 21.15108382219864 -7 1 -2
193 1 2 -1.1794 6.846356459744475 14.569802175372459 4.072432045655817 3 -4 -5
74 1 1 0.5897 9.057014569864554 11.853150444977123 2.0525633801749192 0 -1 4
195 1 1 0.5897 7.699565128835102 14.922627037815326 4.325200397535509 3 -4 -5
194 1 1 0.5897 6.443469086663486 14.301361035856898 4.898249440966779 3 -4 -5
207 1 1 0.5897 6.5136151423707265 16.3999991757009 4.066255979057931 -6 4 -1
437 1 1 0.5897 6.797411694301312 13.494151774207053 1.3319208397025677 -5 6 5
436 1 2 -1.1794 6.576313834530493 12.692085268729942 1.8053389532473458 -5 6 5
438 1 1 0.5897 6.520733827053077 12.962055229039354 2.7220420391689464 -5 6 5
811 1 2 -1.1794 5.936003937839388 12.350223796737213 5.7681928315679105 -9 4 -4
75 1 1 0.5897 8.730908893990549 13.002795685976391 1.122913964899046 0 -1 4
17 1 1 0.5897 6.4629855303959385 12.50684931757563 9.998476689222072 -5 11 3
788 1 1 0.5897 6.482194491111232 15.197317072174277 10.253756707171883 1 -1 11
770 1 1 0.5897 7.9798241114794966 13.312771242464121 8.803816462929014 6 -6 3
159 1 1 0.5897 6.4655667722601935 15.15662161891351 7.283594564064815 2 3 0
157 1 2 -1.1794 5.78824842271116 15.585132680573247 6.7601829879378945 2 3 0
771 1 1 0.5897 8.370431610183873 13.908535941278366 7.4679267542207315 6 -6 3
769 1 2 -1.1794 7.9141593868941005 14.11388951899162 8.283991974599783 6 -6 3
789 1 1 0.5897 7.277200502556882 16.2368480747838 9.492508981837348 1 -1 11
787 1 2 -1.1794 6.457025850469173 16.1111544936677 9.969850065320724 1 -1 11
158 1 1 0.5897 5.874731150568608 16.51496556998547 6.970594811659999 2 3 0
812 1 1 0.5897 5.575047413236681 12.761353858712567 6.55369050606124 -9 4 -4
16 1 2 -1.1794 5.836124025241914 11.832560710079992 9.73625692916055 -5 11 3
216 1 1 0.5897 7.398838107571061 14.116180867511837 12.076659982311648 2 -6 -3
33 1 1 0.5897 5.7424020654486085 13.512257705435836 15.488068122919948 3 3 6
737 1 1 0.5897 6.785961129667252 15.35703876507623 14.305755811200036 2 -2 -1
736 1 2 -1.1794 7.413472431432925 15.228762305520846 13.594349425392032 2 -2 -1
215 1 1 0.5897 7.738967541335539 12.74448944633083 11.533594272517526 2 -6 -3
31 1 2 -1.1794 6.193822038046371 12.711923369228106 15.219706011381255 3 3 6
738 1 1 0.5897 8.26734476539489 15.39157348897743 13.995238755881195 2 -2 -1
32 1 1 0.5897 6.052811705053909 12.102390868868229 15.944221086427502 3 3 6
142 1 2 -1.1794 5.514996379696037 15.210741649330865 16.03376940964158 -8 3 7
605 1 1 0.5897 7.828496917823071 12.094601248495154 14.857860192917926 -7 0 -2
604 1 2 -1.1794 8.680724899903534 11.916437227167817 14.459981450880699 -7 0 -2
214 1 2 -1.1794 7.652780792806547 13.661652177539745 11.273387355293732 2 -6 -3
863 1 1 0.5897 5.438521042982406 12.3728925581557 13.634477454384312 7 1 0
420 1 1 0.5897 8.606806303104964 15.446816083505174 11.228589408263543 -9 -1 3
143 1 1 0.5897 6.0732715209015495 15.596746918884953 16.708798042451896 -8 3 7
151 1 2 -1.1794 7.4812643359565305 14.665785319953365 20.602417957899643 5 4 -7
383 1 1 0.5897 7.243846578621837 13.87873562798938 17.79167626916168 -9 -5 -1
382 1 2 -1.1794 8.148369722787116 14.180726260962329 17.708149456307392 -9 -5 -1
152 1 1 0.5897 7.781820405755212 14.626304992379533 19.69443820483683 5 4 -8
154 1 2 -1.1794 5.6491512763588005 13.220088956227851 18.469950567218667 7 -1 -3
384 1 1 0.5897 8.080640635068152 15.016576543813807 17.246494800952203 -9 -5 -1
477 1 1 0.5897 8.714159016041652 12.536684598769154 18.435211081711216 1 -3 0
156 1 1 0.5897 5.925052056581136 12.51969330939183 19.061277242734494 7 -1 -3
27 1 1 0.5897 6.204918043097251 16.08839075101016 20.732523983939544 4 4 1
153 1 1 0.5897 8.067902772597614 15.294995543595308 21.022272088523575 5 4 -7
155 1 1 0.5897 5.093705608422172 12.783806339295083 17.82383896529734 7 -1 -3
820 1 2 -1.1794 8.534443896656805 19.156895006717676 2.01359167499452 -3 0 2
739 1 2 -1.1794 8.226975920396253 18.104594055578865 5.683291859809107 6 -4 4