LAMMPS data file via write_data, version 30 Jul 2021, timestep = 8000000

864 atoms
2 atom types
576 bonds
1 bond types
288 angles
1 angle types

0.727206718963588 17.480365681041505 xlo xhi
1.9480847287844583 21.681093071219934 ylo yhi
0.8871904985787964 21.326005301431636 zlo zhi

Masses

1 1.00794
2 15.9994

Pair Coeffs # lj/cut/tip4p/long/omp

1 0 0
2 0.21084 3.1668

Bond Coeffs # harmonic/omp

1 450 0.9572

Angle Coeffs # harmonic/omp

1 55 104.52

Atoms # full

613 1 2 -1.1794 5.531208386645956 5.638626141136809 1.844659117518325 0 3 5
429 1 1 0.5897 8.60507930710645 3.6461286758538547 1.6253568866820864 6 -1 -2
197 1 1 0.5897 1.8152270956755523 3.9049905031170162 2.2602389077402636 2 -6 0
215 1 1 0.5897 4.101511727043745 5.492943426910757 4.611354939726118 -1 3 -1
615 1 1 0.5897 5.2423730512577 6.504453799286769 2.1331341108384314 0 3 5
675 1 1 0.5897 3.330063183930875 1.975174433997573 1.2124478530310847 -1 -1 -2
670 1 2 -1.1794 3.1542284782696948 4.735356620271699 3.1790844227306723 5 4 1
173 1 1 0.5897 7.8185569105352 5.105969758587276 5.097572133790204 4 3 -3
174 1 1 0.5897 6.333840194277945 5.072773471563665 5.3918033032619395 4 3 -3
671 1 1 0.5897 3.9445401661617554 4.814339406629072 2.6447847731113665 5 4 1
489 1 1 0.5897 2.1020718559886187 2.538298811564876 5.135729881831393 -3 -5 0
509 1 1 0.5897 7.167573879477038 6.463675497464473 1.8796010599760915 -2 0 3
614 1 1 0.5897 5.132587606623618 5.527937268432053 0.9814385319635559 0 3 4
495 1 1 0.5897 8.023680706848417 2.7362387289315517 4.1785571823680705 -4 -3 0
214 1 2 -1.1794 4.515172900061929 5.72998777548361 5.4414354688209725 -1 3 -1
508 1 2 -1.1794 8.020415515572282 6.783595776792502 2.1738872919043297 -2 0 3
715 1 2 -1.1794 5.610067114860922 2.964918512295884 3.300839077034984 5 -5 -3
672 1 1 0.5897 3.1825740197860117 3.840854237765785 3.5187555787102913 5 4 1
172 1 2 -1.1794 7.066231410036635 4.514967341478374 5.129610436828346 4 3 -3
717 1 1 0.5897 6.036039819596173 3.6579871442679277 3.80533581382797 5 -5 -3
487 1 2 -1.1794 2.9901410312027084 2.27247770146573 4.89703217249731 -3 -5 0
716 1 1 0.5897 5.086370117602513 2.4870984890974563 3.9440539903567258 5 -5 -3
196 1 2 -1.1794 1.0167202980950503 3.4761816606197913 1.9523336520680652 2 -6 0
427 1 2 -1.1794 8.638762672634424 3.8722724068207723 2.55490965965791 6 -1 -2
198 1 1 0.5897 0.8073601238314481 3.9203166478292895 1.1306067521962253 2 -6 0
428 1 1 0.5897 8.497754275942006 4.818809342385723 2.5768865811646524 6 -1 -2
65 1 1 0.5897 0.933958332856217 6.123421617257676 5.116667995028919 2 0 -2
488 1 1 0.5897 3.4556640732487147 2.2141777492977925 5.731420969553679 -3 -5 0
162 1 1 0.5897 2.1363410380288723 5.057055368994787 6.921961901162425 1 9 2
580 1 2 -1.1794 8.27587515466306 3.8251674484654936 10.26337580534494 5 0 -1
736 1 2 -1.1794 2.7787079585516707 4.938602663333126 10.226947154826904 4 0 1
581 1 1 0.5897 8.130738276469142 3.5859768249923976 9.34794027971211 5 0 -1
449 1 1 0.5897 1.253384798455871 3.2180104174661013 8.313512386220278 3 -4 -2
796 1 2 -1.1794 8.376562370736043 3.399915664082868 7.2803560815461585 -3 -2 -5
239 1 1 0.5897 6.964868816432035 5.369854717937321 8.70954157179079 -6 0 -1
738 1 1 0.5897 2.195724058260997 4.687922225062946 10.943592823327462 4 0 1
211 1 2 -1.1794 4.9914225036332205 3.0268355714531125 7.1840066872499335 -3 1 0
212 1 1 0.5897 5.54743219250545 3.6911225044414797 7.591281854612423 -3 1 0
161 1 1 0.5897 2.6509086160342443 4.8849222483182775 8.335340551420206 1 9 2
240 1 1 0.5897 5.511804466356324 5.794609802140403 8.72551824509393 -6 0 -1
611 1 1 0.5897 3.501659326954534 2.403494999174472 9.47008755685339 1 3 -1
238 1 2 -1.1794 6.074233078949673 5.020108896876406 8.736840792378857 -6 0 -1
737 1 1 0.5897 2.9740256030014067 5.861729498392343 10.388190440413757 4 0 1
797 1 1 0.5897 7.856189688330722 3.69005973963625 6.531110366532351 -3 -2 -5
160 1 2 -1.1794 2.9171817071867077 4.812501936857982 7.418733672366367 1 9 2
787 1 2 -1.1794 8.330403466817566 6.61676860147934 9.141527085271152 7 1 3
823 1 2 -1.1794 4.787589762594259 3.1560223927651743 10.635321319776008 -4 4 3
213 1 1 0.5897 4.109683866649954 3.225900323500374 7.499048898357852 -3 1 0
610 1 2 -1.1794 2.7554369646073833 2.2695712516042197 8.88566458796601 1 3 -1
825 1 1 0.5897 5.525335448171257 3.7015280519701768 10.362454756084611 -4 4 3
824 1 1 0.5897 4.022095954537203 3.7229636443222223 10.541000458756807 -4 4 3
216 1 1 0.5897 4.025329589415505 5.240269014257868 6.102135094930432 -1 3 -1
64 1 2 -1.1794 0.7882788815798872 5.819818038403696 6.0127116575084045 2 0 -2
144 1 1 0.5897 4.351894858063135 4.914798774028926 15.833610130933346 -2 2 5
620 1 1 0.5897 2.12811399400141 4.164244698714269 13.282928027226815 5 -4 1
242 1 1 0.5897 4.8404615270435425 6.1939430539464055 12.857394823984132 2 -2 0
257 1 1 0.5897 7.341247105788115 5.693425619872152 15.978537339500276 -4 -4 1
621 1 1 0.5897 1.6388331883419647 2.8467082412419393 12.720048887069241 5 -4 1
272 1 1 0.5897 6.607462077487489 4.988206161693935 12.586761937076956 3 4 2
237 1 1 0.5897 8.651464428947236 2.5230785395516784 15.618304894207412 2 -4 -3
4 1 2 -1.1794 1.5371805835007182 6.003045484966344 13.498218732938806 4 1 -2
250 1 2 -1.1794 6.792477780597682 3.7780230677503717 14.054759822405785 4 -4 3
5 1 1 0.5897 2.4841990905532985 6.132051651450337 13.44519153047881 4 1 -2
251 1 1 0.5897 7.670521120467386 4.155277974972505 13.999228653203714 4 -4 3
271 1 2 -1.1794 6.570009036020337 5.695379884770624 11.942700614148555 3 4 2
243 1 1 0.5897 4.241838158384672 5.692571832436987 14.15443945293743 2 -2 0
662 1 1 0.5897 2.291944853585308 2.159348958671427 14.82909751763386 1 -6 2
663 1 1 0.5897 3.630537775891057 2.4302939300887996 15.482394734484696 1 -6 2
619 1 2 -1.1794 2.4168911934987896 3.400803338164202 12.782862834626984 5 -4 1
142 1 2 -1.1794 4.212292123684312 4.358432289329908 15.067273885914652 -2 2 5
6 1 1 0.5897 1.3554117915496398 5.9420607840022015 14.436059765532232 4 1 -2
143 1 1 0.5897 5.093160853487372 4.1066195598897774 14.789840342923993 -2 2 5
252 1 1 0.5897 6.82876433354651 3.002229291715148 13.495189271927686 4 -4 3
241 1 2 -1.1794 4.3374747318751865 6.480715790116538 13.619672113917513 2 -2 0
579 1 1 0.5897 3.896632351033817 2.3999725600580915 13.019471366331421 3 -1 -1
804 1 1 0.5897 7.911643949399219 2.38808340940676 11.398800942147618 6 2 -4
273 1 1 0.5897 7.007563745415519 5.33912995631326 11.169427535379636 3 4 2
859 1 2 -1.1794 2.107318348193948 6.4259556006099015 16.18383245121674 -1 -3 0
46 1 2 -1.1794 7.905567963416936 6.045147365510509 19.25543725991708 2 -5 -2
711 1 1 0.5897 6.823778384031264 3.241643975325898 17.738800504728548 -6 -8 -1
146 1 1 0.5897 2.5055150441034915 6.396116961632576 20.936150983870576 -2 -1 -6
220 1 2 -1.1794 4.544279532847215 5.305667229666444 17.83145388343348 -1 -3 5
71 1 1 0.5897 6.261515394326478 3.270022488678025 19.762609955576405 2 3 -7
221 1 1 0.5897 5.334470276412965 5.816780441296288 17.656344720364007 -1 -3 5
571 1 2 -1.1794 8.528352619632972 3.8313957543334585 17.089539739080575 4 -3 2
673 1 2 -1.1794 3.545355855750569 2.5032762485837656 20.88246513046274 -1 -1 -3
553 1 2 -1.1794 1.6492392790553625 3.974617300520368 17.368237724591253 -6 -2 2
744 1 1 0.5897 3.410151459965851 4.262033594758579 20.47305278361302 0 -3 2
555 1 1 0.5897 1.2365534796057285 3.42139922656146 16.70493033306499 -6 -2 2
70 1 2 -1.1794 6.902571287110939 3.759065286398487 20.278530466213816 2 3 -7
860 1 1 0.5897 2.2104260447604647 5.564447012035475 16.58815157839553 -1 -3 0
742 1 2 -1.1794 3.6654689504144375 5.177912836470817 20.36229397232978 0 -3 2
554 1 1 0.5897 2.2389249200838037 3.385562022118126 17.839002229569186 -6 -2 2
47 1 1 0.5897 7.630313373988841 5.205867960783136 19.624435892203792 2 -5 -2
743 1 1 0.5897 3.7485055983647007 5.291080448668 19.415378206087816 0 -3 2
435 1 1 0.5897 0.8276208531140098 6.8162090421383 17.489812494925193 -1 1 -3
222 1 1 0.5897 4.869013781818087 4.446465048605759 18.10092381979788 -1 -3 5
709 1 2 -1.1794 5.9573050608374425 2.896027377215934 17.953426959636126 -6 -8 -1
710 1 1 0.5897 5.6363533073417065 2.525407673976802 17.131277641596906 -6 -8 -1
48 1 1 0.5897 7.518365928957463 6.061041171046308 18.380155501433865 2 -5 -2
422 1 1 0.5897 8.401195482638109 2.7663293205542097 19.989230118190772 -4 -2 3
572 1 1 0.5897 9.063541510132493 3.587711658143317 17.844845385943753 4 -3 2
256 1 2 -1.1794 6.989634073562222 6.436910668843186 16.46834617122273 -4 -4 1
72 1 1 0.5897 6.588130824192084 3.6899878147858924 21.17999870512868 2 3 -7
674 1 1 0.5897 3.301475065482774 1.953546513300214 20.13773771037397 -1 -1 -3
45 1 1 0.5897 7.082024503481647 7.866955119022188 5.798276452344818 1 7 0
145 1 2 -1.1794 2.047476767493047 6.88873738419659 1.178385354175679 -2 -1 -5
21 1 1 0.5897 4.486317643353234 9.030224186012923 5.796324906657783 -1 -2 2
815 1 1 0.5897 1.1245021725310715 10.53234183575562 2.0542366101833327 -4 5 -2
538 1 2 -1.1794 4.337011216619542 7.853898267699221 2.6069105176611815 -1 -5 2
539 1 1 0.5897 4.075724253661834 8.147058275366362 3.4799006469810005 -1 -5 2
601 1 2 -1.1794 8.60844903508395 9.347574182295304 1.5799247339911102 2 8 -5
816 1 1 0.5897 1.8396243430397723 9.214945895879744 2.266671337027126 -4 5 -2
106 1 2 -1.1794 1.6214044395101141 10.02108888307754 5.438594662856642 1 1 4
259 1 2 -1.1794 6.901947786908953 8.635410921514666 4.0522313131960885 1 -2 9
260 1 1 0.5897 5.952488340989189 8.683232372974688 4.164218503267346 1 -2 9
603 1 1 0.5897 7.78171189539408 9.73203425441191 1.2883504976387141 2 8 -5
108 1 1 0.5897 2.2987854278391366 9.356950377534616 5.310649105456998 1 1 4
540 1 1 0.5897 3.5681910110554425 7.395600933553948 2.267528342350277 -1 -5 2
261 1 1 0.5897 7.189317187911434 9.548488390554617 4.047352381211269 1 -2 9
510 1 1 0.5897 7.831516049236233 7.263389929633076 2.980365800385513 -2 0 3
394 1 2 -1.1794 7.114706706289434 11.466038721900517 4.37612209562585 -2 0 4
77 1 1 0.5897 3.5750439444213344 10.231967079532998 2.5854753679595985 -1 -6 -7
107 1 1 0.5897 2.1059376271603227 10.82513309906276 5.625851164680338 1 1 4
602 1 1 0.5897 8.462100202411627 8.40257231404701 1.5366981199562546 2 8 -6
395 1 1 0.5897 7.649418504647766 11.497483524354022 5.169466701870058 -2 0 4
76 1 2 -1.1794 4.367672689251608 10.762792341257457 2.6645633205669146 -1 -6 -7
764 1 1 0.5897 5.499466482637996 9.97767634784285 1.5048161583161301 -7 3 0
19 1 2 -1.1794 4.073516392176536 8.413007692378175 5.192207169103052 -1 -2 2
78 1 1 0.5897 4.133443803198713 11.603817664309346 2.2719881522313203 -1 -6 -7
169 1 2 -1.1794 0.9056740880260086 7.230003407486358 3.6571946190394438 -2 1 0
20 1 1 0.5897 4.531111423706316 7.586052447128134 5.3441071625042476 -1 -2 1
374 1 1 0.5897 3.6822020614518998 11.471299681900007 4.103124564183156 7 4 1
814 1 2 -1.1794 1.7449637005722423 9.932456849621264 1.64015164782506 -4 5 -2
396 1 1 0.5897 7.706315312024153 11.744113238433453 3.6768135106037008 -2 0 3
171 1 1 0.5897 1.2526048124860987 6.9675319356991565 2.8045180815403192 -2 1 0
545 1 1 0.5897 2.764770606119683 11.082305442056056 8.115117146215356 -6 1 4
324 1 1 0.5897 3.879746149079006 10.848843641013293 10.418750397857472 6 -1 -3
827 1 1 0.5897 5.651995858155849 11.002009248149902 6.672236194161817 -2 -1 2
518 1 1 0.5897 8.971087647130958 7.795324499167748 10.342912234391711 -3 -3 -2
44 1 1 0.5897 6.232421101884308 7.592050766050339 7.02086302511181 1 7 0
826 1 2 -1.1794 5.319850180934938 10.131501539968701 6.891852235596448 -2 -1 2
122 1 1 0.5897 1.1751251198222352 10.811773355175273 10.857644484285128 4 -1 0
786 1 1 0.5897 6.500074099601481 9.468829701616237 8.006228770198835 2 3 -3
785 1 1 0.5897 7.941908098839255 9.436500553244418 8.466814108865318 2 3 -3
733 1 2 -1.1794 1.8516166177061946 7.694058328749934 8.01664266357265 -6 4 -3
784 1 2 -1.1794 7.043765856848665 9.488424625762779 8.793829617124874 2 3 -3
544 1 2 -1.1794 3.1800013024550786 10.343768381073458 8.560587317187387 -6 1 4
393 1 1 0.5897 3.8676863188574306 7.00203380116158 7.737295444438448 3 -3 -3
43 1 2 -1.1794 7.109118029662793 7.454772004237619 6.661806765446418 1 7 0
191 1 1 0.5897 6.4733130884274805 11.111880673041632 9.336520099980891 1 5 -6
546 1 1 0.5897 2.5627446898196595 9.620222950898928 8.452094245384703 -6 1 4
828 1 1 0.5897 4.613255220399116 10.294828815837583 7.516627989421475 -2 -1 2
164 1 1 0.5897 6.812713370954461 8.654497221831747 10.42040060284129 -5 2 -4
789 1 1 0.5897 8.120866018303138 7.00679179764947 8.292841066866444 7 1 3
734 1 1 0.5897 1.500585886068727 7.176501978809278 7.291924233551572 -6 4 -3
735 1 1 0.5897 1.3810720557288914 7.377326416151089 8.787790449682046 -6 4 -3
391 1 2 -1.1794 4.732363113206298 7.275640869390512 8.043509303728836 3 -3 -3
754 1 2 -1.1794 3.487279784580732 7.629197955515317 10.777025980572281 0 -4 0
392 1 1 0.5897 4.5611134978443 7.738587155080156 8.863658130218617 3 -3 -3
755 1 1 0.5897 4.247195582080792 8.178894825717261 10.968538595261952 0 -4 0
575 1 1 0.5897 0.954687158264942 11.118965868451772 15.895791499286856 4 1 -2
163 1 2 -1.1794 6.310719588483632 8.450786806446747 11.209583258642894 -5 2 -4
131 1 1 0.5897 1.173077160752043 7.630097995478481 12.707500160761002 -4 2 0
81 1 1 0.5897 3.0064940216786065 10.695346211162832 13.923003250874318 3 2 -3
79 1 2 -1.1794 3.067087870746396 9.759384035918348 14.114320007208065 3 2 -3
130 1 2 -1.1794 1.2710123387240475 8.50371928444997 12.328704833130349 -4 2 0
542 1 1 0.5897 7.7310107145162785 7.91154686723275 13.43321685074075 -2 1 2
165 1 1 0.5897 6.550060445635153 7.548143001068406 11.419930550556366 -5 2 -4
541 1 2 -1.1794 8.634471791679388 7.635445469186601 13.278858334476025 -2 1 2
356 1 1 0.5897 6.226449030429513 9.984074716205617 12.228826559994806 -2 -3 9
357 1 1 0.5897 6.764310100657145 10.627792970956461 13.489158065593434 -2 -3 9
264 1 1 0.5897 7.195982859721293 10.736837583289637 15.318489065481401 3 0 2
80 1 1 0.5897 3.63320774971547 9.409902712054599 13.42608259752514 3 2 -3
469 1 2 -1.1794 6.141976427866162 8.21727779808331 14.529881553113944 0 -2 2
132 1 1 0.5897 1.6759150277900998 9.022650398801808 13.023730407403182 -4 2 0
470 1 1 0.5897 5.747501224706856 8.816423077160044 15.163685723334385 0 -2 2
262 1 2 -1.1794 8.06145523836019 11.0210876541877 15.024423654157232 3 0 2
258 1 1 0.5897 6.67908586102476 7.0424886859078155 15.795194413234318 -4 -4 1
471 1 1 0.5897 5.475084770519168 7.54553754101877 14.387361990657718 0 -2 2
355 1 2 -1.1794 6.270481808658715 10.820580499700535 12.692113889280265 -2 -3 9
576 1 1 0.5897 2.07434000379152 10.134211567052619 15.633666479023741 4 1 -2
223 1 2 -1.1794 8.971749964926474 10.931879540763523 11.270539707998184 1 -4 -9
549 1 1 0.5897 0.9108769548626965 11.200545836677467 13.180030618498813 6 1 3
322 1 2 -1.1794 3.66594655817617 10.768047864086244 11.348295580157144 6 -1 -3
756 1 1 0.5897 2.7727259122638426 8.025315662889902 11.275817884245617 0 -4 0
323 1 1 0.5897 4.506156593336318 10.863166302295076 11.796965511695072 6 -1 -3
224 1 1 0.5897 9.087386651968956 9.989763508710814 11.14660703028725 1 -4 -9
225 1 1 0.5897 8.164501522821922 11.009751142808252 11.779074633878142 1 -4 -9
311 1 1 0.5897 8.886687491998753 7.623914472139569 16.444839009744257 -2 3 -1
574 1 2 -1.1794 1.4693618313926724 10.42891268039812 16.314443241117722 4 1 -2
400 1 2 -1.1794 5.889818582421521 7.8681252324908915 19.36424217018532 -1 -5 3
401 1 1 0.5897 6.3900453528614864 8.634636636482705 19.084013890806123 -1 -5 3
767 1 1 0.5897 4.20981203428367 8.132093852992707 18.452157219414165 -1 0 -4
732 1 1 0.5897 4.994688105342018 9.695664621964404 17.096524860626708 5 1 -6
731 1 1 0.5897 5.156369859511362 11.118349468768427 16.60472646764412 5 1 -6
342 1 1 0.5897 5.202594845076986 11.090063472691572 19.92941206752347 5 5 0
402 1 1 0.5897 6.547842323632433 7.266100510358433 19.711910359753347 -1 -5 3
766 1 2 -1.1794 3.6887919341951343 8.391324860914612 17.692131328515366 -1 0 -4
533 1 1 0.5897 7.085807737408047 10.053931972105797 17.788717692133947 -7 -4 -3
730 1 2 -1.1794 5.572610837700248 10.256729715764603 16.57931921412274 5 1 -6
566 1 1 0.5897 3.179096278835696 11.039299418324244 19.385844273098815 -1 7 -7
147 1 1 0.5897 1.3681218201693994 7.372712217711471 21.147568796340373 -2 -1 -6
534 1 1 0.5897 7.328216387563143 10.58352514919766 19.186155131859724 -7 -4 -3
565 1 2 -1.1794 2.4678004156920528 10.398987939292518 19.405032166578167 -1 7 -7
768 1 1 0.5897 3.1859271276193577 9.148327828193551 17.992796284542944 -1 0 -4
765 1 1 0.5897 5.485324576983989 8.987469761687096 20.798469473596153 -7 3 -1
532 1 2 -1.1794 7.636443493810033 9.92706279586546 18.56137648060938 -7 -4 -3
567 1 1 0.5897 2.309748222405096 10.243677180683873 20.33627870046935 -1 7 -7
340 1 2 -1.1794 4.90165156059892 11.670035479157786 19.229871256523897 5 5 0
763 1 2 -1.1794 5.826922237234286 9.84438390671529 21.054067361895065 -7 3 -1
861 1 1 0.5897 2.519796831483359 7.031234074896419 16.8001194674099 -1 -3 0
127 1 2 -1.1794 6.154947194702876 16.02916976228375 4.358122403675507 -1 -1 -3
372 1 1 0.5897 1.1545601361679043 13.789949300949914 3.8832420937530094 8 6 -2
419 1 1 0.5897 3.499228162206498 13.901151704462679 4.283084485369871 -8 1 6
420 1 1 0.5897 3.0672975253256847 14.976436469127469 3.3087843066876266 -8 1 6
377 1 1 0.5897 8.787128666400685 13.738172790918359 4.717458001628982 6 5 7
376 1 2 -1.1794 8.69336808029114 14.690564288957601 4.738791613599913 6 5 7
16 1 2 -1.1794 7.718893633679717 15.838664413544763 1.2828816923770394 -4 1 1
415 1 2 -1.1794 3.604761958635918 16.698082240005284 2.3880336305321883 -2 3 0
63 1 1 0.5897 8.575637120572669 13.556172123050759 2.5124162816871527 0 -5 6
690 1 1 0.5897 3.0199104082553467 13.466587617656616 2.2228108597623906 0 1 5
128 1 1 0.5897 7.0686125676963245 15.76374252603596 4.463354686026805 -1 -1 -3
90 1 1 0.5897 5.675191272830771 14.346212356308145 3.511521479365224 4 0 4
17 1 1 0.5897 8.67267261224945 15.901369704623301 1.2309635760281898 -4 1 1
18 1 1 0.5897 7.491710569101204 16.299166590955707 2.0907340022322667 -4 1 1
746 1 1 0.5897 5.665904870738263 13.750007613346886 1.4572768485244985 6 5 -7
418 1 2 -1.1794 2.7859287457163044 14.146401651026279 3.693715402585916 -8 1 6
89 1 1 0.5897 6.112454180305851 12.91727389459566 3.754438628795147 4 0 4
61 1 2 -1.1794 8.820317092970942 12.632041660775311 2.463284828444613 0 -5 6
688 1 2 -1.1794 3.0092329190370486 13.119922331388917 1.3306168885823728 0 1 5
88 1 2 -1.1794 5.6685666402253245 13.47481962365005 3.115371543897516 4 0 4
68 1 1 0.5897 4.7560201018684305 15.261966944430021 5.864909166028808 6 -2 -4
375 1 1 0.5897 4.74609847905795 11.856746738939492 5.108906473883651 7 4 1
689 1 1 0.5897 3.7864881790145484 13.496217081935793 0.9176134284961113 0 1 5
373 1 2 -1.1794 3.807655580310978 11.928876907508053 4.934495575548678 7 4 1
398 1 1 0.5897 0.8945810786000397 16.72613672399867 2.5099626243625717 9 4 -5
660 1 1 0.5897 1.783945529528685 16.571408372909914 5.778007056442647 -1 -3 4
135 1 1 0.5897 2.4246377219670814 15.794893168358946 8.46363530487373 -4 -7 0
782 1 1 0.5897 6.086595040656262 12.669969578184885 8.085528005518153 0 2 1
408 1 1 0.5897 7.5045049722377755 15.925843637340193 7.113150860220847 -6 -4 4
683 1 1 0.5897 5.558143652732996 16.17705918238152 10.6623821420278 6 1 -5
69 1 1 0.5897 4.729694282222071 13.933004756822505 6.589641785919534 6 -2 -4
110 1 1 0.5897 8.949113988021894 15.13325851407835 8.821600335054063 2 -3 -7
635 1 1 0.5897 1.1718058430240323 14.159172420262736 10.463315348145747 -7 3 1
134 1 1 0.5897 2.9589418066301287 15.316117592339696 7.130450392459771 -4 -7 0
406 1 2 -1.1794 7.933832267536519 15.085775798592117 7.275187305169759 -6 -4 4
192 1 1 0.5897 6.5199022330676355 12.331439291653504 10.23237779830115 1 5 -6
781 1 2 -1.1794 6.037428190354692 12.97134800984187 7.178305842476214 0 2 1
783 1 1 0.5897 6.668065950281361 13.689834040320369 7.129582918569716 0 2 1
407 1 1 0.5897 8.31761970613963 14.845759828243652 6.4317407532126145 -6 -4 4
140 1 1 0.5897 3.4627383610088565 12.84674925998183 10.855970172821117 1 -5 -2
648 1 1 0.5897 7.916037448155914 14.034770663424732 10.538670860124588 -5 3 1
228 1 1 0.5897 2.662027617870387 13.034418744089326 6.610313693147408 2 -1 2
141 1 1 0.5897 3.9822152139450466 14.032111790359219 10.070409191187716 1 -5 -2
133 1 2 -1.1794 2.1571372396085375 15.365494657791704 7.651004754790426 -4 -7 0
647 1 1 0.5897 6.463046309916745 14.278634063535895 10.887078778568641 -5 3 1
682 1 2 -1.1794 5.101346464698114 15.65256715795408 10.004702340736724 6 1 -5
226 1 2 -1.1794 2.1149834961497573 12.566918387565341 7.2416082525697165 2 -1 2
684 1 1 0.5897 5.408180459462332 15.998365294478518 9.16648497774181 6 1 -5
139 1 2 -1.1794 3.1947593471193136 13.50829850445653 10.21813625160578 1 -5 -2
227 1 1 0.5897 2.212908014603429 13.060536493455462 8.055892919173058 2 -1 2
646 1 2 -1.1794 7.200387831917664 13.6989910902805 11.078474119989009 -5 3 1
856 1 2 -1.1794 8.95996208162097 12.131693267310574 6.352355357674917 2 -1 -3
67 1 2 -1.1794 4.187087364993985 14.517287747763444 6.060025166616195 6 -2 -4
190 1 2 -1.1794 5.947572822537434 11.855968398235726 9.63016328984798 1 5 -6
652 1 2 -1.1794 4.785571042814084 13.641034774143003 12.77287002431766 -1 1 -1
653 1 1 0.5897 5.57971171890571 13.261836962668072 12.396154341597304 -1 1 -1
439 1 2 -1.1794 5.03889859287362 15.286854069635561 15.03535247223443 0 0 -4
739 1 2 -1.1794 3.285373270177392 16.3026181957993 12.562459756189426 -2 -1 2
740 1 1 0.5897 3.9678768135719444 15.632789269097186 12.51992519583405 -2 -1 2
741 1 1 0.5897 3.385952118289664 16.692949520806348 13.430719924165818 -2 -1 2
656 1 1 0.5897 3.4010771902234955 12.739763341191793 13.234038359849958 -2 3 0
654 1 1 0.5897 5.086978034697315 14.098049999225498 13.558103345880772 -1 1 -1
445 1 2 -1.1794 7.4157964165163 13.679437975742925 13.86834092799476 3 0 -1
832 1 2 -1.1794 4.452688305299664 12.853449776891317 16.191841600004913 8 -1 -3
446 1 1 0.5897 7.91515671226733 14.14229871779616 14.54116514445804 3 0 -1
441 1 1 0.5897 5.726345458200023 15.876147168096596 15.34591203249036 0 0 -4
440 1 1 0.5897 5.017612333633817 14.581183820354575 15.681780001683876 0 0 -4
447 1 1 0.5897 7.9190661478555455 13.808751576126909 13.064419796682284 4 0 -1
55 1 2 -1.1794 6.665763115774472 16.71497839098913 11.940087164285442 0 -2 2
598 1 2 -1.1794 0.8635896121849369 14.698994601987863 13.185053341846961 2 -5 -8
657 1 1 0.5897 1.9933950937398928 13.16105818648841 13.59875387224417 -1 3 0
600 1 1 0.5897 1.605092211251689 15.28915511743955 13.050230701350056 2 -5 -8
263 1 1 0.5897 8.004609352553377 11.976315501229092 14.999295851380637 3 0 2
41 1 1 0.5897 3.663609052817529 16.55173049941252 15.376995723921477 -2 -1 5
834 1 1 0.5897 4.070061042269334 12.649089423056202 15.338534397293797 8 -1 -3
655 1 2 -1.1794 2.5858931835590795 12.409337211069 13.611654649924997 -2 3 0
523 1 2 -1.1794 8.720451942921574 15.16225460022695 15.67559168757914 -2 3 3
56 1 1 0.5897 7.364712942569684 16.256330093045207 12.406383417736379 0 -2 2
299 1 1 0.5897 8.835659658113094 11.899492512558751 17.750656643247627 0 -3 6
665 1 1 0.5897 6.067719640284816 16.3464087897366 17.53644838193679 5 0 1
752 1 1 0.5897 7.2878776071534 13.343629470471667 17.830143024200552 2 5 -1
695 1 1 0.5897 8.823892403878396 15.262286212377827 18.78601628303679 -2 -2 1
1 1 2 -1.1794 7.931434225667965 12.182803592778134 20.39419333746939 0 -11 0
38 1 1 0.5897 3.092427218964245 14.202745317815916 19.14374708277542 0 1 -5
753 1 1 0.5897 6.202119931684358 12.875591696840425 16.88456000488363 2 5 -1
694 1 2 -1.1794 8.158764410600439 14.574902962410409 18.748423532124686 -2 -2 1
341 1 1 0.5897 4.852106381106505 12.533982634096725 19.63906103811106 5 5 0
696 1 1 0.5897 8.35533107519078 14.009627759416595 19.495496556313622 -2 -2 1
751 1 2 -1.1794 7.121837939551373 12.73540301469193 17.10987852861107 2 5 -1
666 1 1 0.5897 6.542839511561522 15.441422244565803 18.65330342477537 5 0 1
2 1 1 0.5897 7.04735964959416 12.546994713490864 20.43965477193383 0 -11 0
426 1 1 0.5897 1.1816170311622696 12.495735832827071 21.28578644791255 8 -5 -2
833 1 1 0.5897 3.7102396743286348 13.13460387801731 16.726652567316393 8 -1 -3
39 1 1 0.5897 4.298263507648937 15.085626569349687 19.385653179466697 0 1 -5
524 1 1 0.5897 8.522548230797433 14.924841386634553 16.581586954305777 -2 3 3
37 1 2 -1.1794 3.353339957888137 15.038289262314356 19.531149300668655 0 1 -5
321 1 1 0.5897 1.367192070720665 13.594500654032764 17.88394861424158 4 2 1
664 1 2 -1.1794 5.768896583494514 15.90306500155882 18.330474610343792 5 0 1
319 1 2 -1.1794 2.248914612720598 13.223622426908829 17.92008802778148 4 2 1
358 1 2 -1.1794 1.1209440811336684 16.108956253505617 16.763341779530464 5 -3 -8
3 1 1 0.5897 8.337506878009432 12.434181163509546 21.223793576012095 0 -11 0
677 1 1 0.5897 1.756157321323924 15.437996741123708 20.775877949425354 0 0 -4
320 1 1 0.5897 2.1114281851296344 12.276366334817473 17.910082380146424 4 2 1
747 1 1 0.5897 6.407280206470516 14.616356613884513 20.900176815730855 6 5 -8
745 1 2 -1.1794 5.767049917004628 13.90702954746719 20.957256773018415 6 5 -8
676 1 2 -1.1794 1.005184924001342 15.678647953734934 21.318483993522225 0 0 -4
658 1 2 -1.1794 2.083411106976505 17.4315287186199 5.483361256939685 -1 -3 4
104 1 1 0.5897 2.620369746554875 19.31316875963663 1.3701456597437613 4 0 8
594 1 1 0.5897 7.760070550747371 20.407504931508317 1.4652907593622024 -2 2 -6
52 1 2 -1.1794 2.9437154088699464 20.49235626424859 2.567440291238241 -1 -2 1
592 1 2 -1.1794 6.865675381306634 20.697876362524816 1.2860494515164158 -2 2 -6
205 1 2 -1.1794 4.361964446158915 18.41688958664993 4.807417581081523 -5 2 -3
692 1 1 0.5897 5.8922119267113935 17.6763611116844 1.737627848088319 4 0 2
53 1 1 0.5897 3.4003328019682324 20.755592095344273 3.3665084950569075 -1 -2 1
399 1 1 0.5897 1.1218144118983497 18.192088620663785 2.207448610128383 9 4 -5
286 1 2 -1.1794 6.041931819094081 20.51049348219478 5.610118125167822 5 -1 3
54 1 1 0.5897 2.02895994962447 20.725689495431695 2.7258059294629935 -1 -2 1
417 1 1 0.5897 3.9719425244853475 16.96933794916084 1.546618041120217 -2 3 0
691 1 2 -1.1794 6.3063791516356345 18.029953205566283 2.5248583725266434 4 0 2
51 1 1 0.5897 9.010500590004305 17.666930771506443 4.066691545781128 3 -1 2
207 1 1 0.5897 4.563499439694854 18.08434044982957 3.9327149936194434 -5 2 -3
416 1 1 0.5897 2.679618592387294 16.93801754045634 2.334674525647305 -2 3 0
397 1 2 -1.1794 1.0704310481809334 17.567586601349106 2.9311106299699974 9 4 -5
693 1 1 0.5897 6.478206077742038 18.94773529405185 2.3140484470344878 4 0 2
659 1 1 0.5897 1.752482985486605 17.507243710383108 4.588347037049196 -1 -3 4
206 1 1 0.5897 3.5100817160360878 18.03498186388189 5.018968797841904 -5 2 -3
493 1 2 -1.1794 8.177343415409997 21.56770097498833 4.461307693488807 -4 -4 0
287 1 1 0.5897 5.430158156985316 19.803693248868782 5.404046341639013 5 -1 3
405 1 1 0.5897 7.4227073070306195 18.585362044476657 4.900158617652342 10 -4 2
403 1 2 -1.1794 7.948824118621528 18.176512574145093 5.587430168620787 10 -4 2
129 1 1 0.5897 6.194002442951325 16.81029349543021 3.806183648224539 -1 -1 -3
494 1 1 0.5897 7.34982799017054 21.29649282608094 4.858802690319598 -4 -4 0
593 1 1 0.5897 6.621239973923094 21.211280738984588 2.0561091659292448 -2 2 -6
595 1 2 -1.1794 7.802003659741744 18.07306202802766 9.192297644378534 -6 -6 2
458 1 1 0.5897 2.7265246676811863 18.572498857230524 7.082977029875293 1 0 -3
459 1 1 0.5897 3.03117344724308 18.27144768331392 8.535100930706566 1 0 -3
584 1 1 0.5897 5.081851490771965 21.31840436705691 8.073313667634611 3 -4 1
457 1 2 -1.1794 3.358779517422069 18.756590861388663 7.7777286590801635 1 0 -3
585 1 1 0.5897 4.765089469563258 19.840148862018157 8.154127902692503 3 -4 1
491 1 1 0.5897 1.7050597457294492 17.047576258474557 10.313864113106513 -1 -2 4
87 1 1 0.5897 4.974594497954759 17.987972068282588 7.6133738351778355 1 7 3
597 1 1 0.5897 7.0493237174658185 17.928253056438656 8.618824382874582 -6 -6 2
404 1 1 0.5897 8.341139621974712 18.911580518297747 6.058671295943148 10 -4 2
85 1 2 -1.1794 5.733940700434662 17.408762126345035 7.548568990001417 1 7 3
596 1 1 0.5897 8.541008370224672 17.68981475674959 8.71974607071048 -5 -6 2
288 1 1 0.5897 5.966988985986605 20.624147702435074 6.557626410472738 5 -1 3
187 1 2 -1.1794 1.090585681338638 20.22286630871797 10.127068581609784 -2 0 6
583 1 2 -1.1794 5.411468766543973 20.491781698104244 8.425947674801012 3 -4 1
86 1 1 0.5897 6.156947484709014 17.658616184117037 6.727028677772414 1 7 3
189 1 1 0.5897 1.7373048330251177 19.731908561248453 10.634024849976514 -2 0 6
520 1 2 -1.1794 8.51586511165472 20.381437680970503 7.428516318824849 -1 -2 -4
612 1 1 0.5897 2.3293148116593914 21.212362338602716 9.217733001980243 1 2 -1
521 1 1 0.5897 7.872925501348777 20.136056528287718 8.09388885572433 -1 -2 -4
30 1 1 0.5897 8.801367969817067 18.7333172071489 10.70021642159759 -6 -2 3
522 1 1 0.5897 8.27083041446139 21.271276196659187 7.1746405817134455 -1 -2 -4
291 1 1 0.5897 5.795818186346708 19.745372720123697 10.369802561966662 -9 -8 -5
490 1 2 -1.1794 2.5691535144316795 17.098625639047135 9.90516268980736 -1 -2 4
492 1 1 0.5897 3.184211890310252 16.972257715508043 10.627680641645965 -1 -2 4
292 1 2 -1.1794 5.255458956437681 18.201402622955523 13.828686499485507 -2 4 2
501 1 1 0.5897 3.2292320954493943 20.120699851518026 12.597042563945573 2 -2 0
236 1 1 0.5897 7.505487076502281 21.427980043441043 15.076945920668107 2 -5 -3
40 1 2 -1.1794 2.976848409518265 17.21539516298411 15.31220171580573 -2 -1 5
530 1 1 0.5897 1.359850126509447 17.78824732741807 14.220099616131337 -4 0 -5
822 1 1 0.5897 1.7896429774367555 20.110896971765552 16.210503993244252 2 3 3
500 1 1 0.5897 3.3432490051810966 18.621564318747414 12.419161450190899 2 -2 0
577 1 2 -1.1794 4.527107862409759 21.41289986107893 13.036627540509082 3 -2 -1
649 1 2 -1.1794 5.672233775327699 21.18997566597988 15.50921744804491 6 1 2
650 1 1 0.5897 5.232114733370252 20.461938510002028 15.948038123912289 6 1 2