LAMMPS data file via write_data, version 30 Jul 2021, timestep = 4750000

1008 atoms
2 atom types
672 bonds
1 bond types
336 angles
1 angle types

-3.1068899234129876 14.716888922969671 xlo xhi
-0.0009095870880742041 22.58090858709218 ylo yhi
0.03280062030033193 19.19719737969411 zlo zhi
-0.10953564609735253 -6.59979151605234 0.11748656833182029 xy xz yz

Masses

1 1.008
2 15.999

Pair Coeffs # lj/cut/tip4p/long/omp

1 0 0
2 0.21084 3.1668

Bond Coeffs # harmonic/omp

1 450 0.9572

Angle Coeffs # harmonic/omp

1 55 104.52

Atoms # full

21 7 1 0.5897 1.2422014427618464 2.3190788218579463 1.0145738505431534 0 0 0
31 11 2 -1.1794 1.3776420550205515 0.9487657654090945 2.3532388629306267 0 0 0
32 11 1 0.5897 1.2009779630673103 1.3500288203807032 3.204167865984677 0 0 0
33 11 1 0.5897 0.6116867297783046 0.4005723373222098 2.1827453737783746 0 0 0
46 16 2 -1.1794 1.8019628754165709 4.932324242484589 2.3881056327115964 0 0 0
55 19 2 -1.1794 -0.5675087334574438 4.265750237952999 3.6100137782401576 0 0 0
56 19 1 0.5897 -1.1917362600992008 3.7487945572642967 3.1007556729652133 0 0 0
57 19 1 0.5897 0.1451557658539646 4.451851959740121 2.998634296951222 0 0 0
86 29 1 0.5897 -2.347623018724686 1.6166162302826224 3.9672999645360587 1 0 0
78 26 1 0.5897 0.2236829461363916 2.9362036236914038 4.521383355384163 0 0 0
121 41 2 -1.1794 -2.419898456236976 2.6636297695257345 2.494097609171961 1 0 0
122 41 1 0.5897 -2.323560228687362 2.1544633865616274 1.689248814404021 1 0 0
123 41 1 0.5897 -3.345219128858139 2.9074887614665603 2.514503723032843 1 0 0
53 18 1 0.5897 4.3544768534016525 3.0227842666357354 3.008725121894504 0 0 0
158 53 1 0.5897 -4.066725259289609 4.446906067366388 4.238394002788692 1 0 0
47 16 1 0.5897 1.9586702347473528 5.431872880152535 1.5867506251424854 0 0 0
48 16 1 0.5897 2.0048655216297426 5.544091981266824 3.0958175010210036 0 0 0
6 2 1 0.5897 3.402444524019213 1.6182480209170016 4.658706838209972 0 0 0
71 24 1 0.5897 3.150563111941545 0.6425005427080503 1.9500271389229245 0 0 0
16 6 2 -1.1794 5.384646489483826 5.004186962160809 0.5758895753785271 0 0 0
527 176 1 0.5897 4.113036649234385 2.000821272709844 0.41559847995807886 0 0 1
602 201 1 0.5897 -0.5310316272015729 5.268546299514092 0.381248461921428 1 0 1
52 18 2 -1.1794 3.591614046051883 3.132046779683091 3.576497536135879 0 0 0
70 24 2 -1.1794 3.894776044709987 0.4822808617074706 1.3697307074320013 0 0 0
54 18 1 0.5897 2.9779675331072086 3.650830116344112 3.0565492557590614 0 0 0
482 161 1 0.5897 -1.0815802783540027 0.06310953211429753 0.8475325963629158 1 1 0
18 6 1 0.5897 4.906358930396433 4.185429298334286 0.4447799111442384 0 0 0
19 7 2 -1.1794 1.288057933838246 2.6239060835904073 0.10835643806170481 0 0 0
101 34 1 0.5897 -2.5732902658983665 4.461643672070639 0.19853416693800643 1 0 0
157 53 2 -1.1794 -3.590599662884502 5.073702251123121 4.783114263801059 1 0 0
76 26 2 -1.1794 0.8802359015523638 2.278499078509961 4.750296694746502 0 0 0
163 55 2 -1.1794 -2.072350106153099 1.3406047325125037 0.09661593808563715 1 0 0
402 134 1 0.5897 1.4418854668437202 0.30038723926858113 7.8699197181357015 0 1 0
126 42 1 0.5897 -4.106084782893927 2.919096515496696 7.170462781200171 1 0 0
44 15 1 0.5897 -0.39761165654541575 5.381800260999618 8.161254778286562 0 0 0
34 12 2 -1.1794 0.12635206287856482 1.3264509835918237 7.223719186512229 0 0 0
35 12 1 0.5897 0.27717313046280045 1.9549134351613737 7.929832313020514 0 0 0
36 12 1 0.5897 -0.7444204677282262 0.9706712291397156 7.4010297554432976 0 0 0
43 15 2 -1.1794 -0.33306652346014376 5.060114969186306 7.2620007156291315 0 0 0
97 33 2 -1.1794 -4.138577188680599 4.768262514950251 9.507079619967476 1 0 0
45 15 1 0.5897 0.5963812822639083 4.864918903506473 7.143028505271763 0 0 0
58 20 2 -1.1794 2.1164538262556185 4.194704268949947 6.419277767207841 0 0 0
59 20 1 0.5897 1.7272206146240503 3.5287278528286805 5.852472205934291 0 0 0
60 20 1 0.5897 2.8709563481642766 3.760277875845654 6.816807351547543 0 0 0
67 23 2 -1.1794 -2.3435343203414365 0.6721576640400703 8.228448745733205 0 0 0
159 53 1 0.5897 -3.05608837801258 4.530703662877397 5.362347675517195 1 0 0
69 23 1 0.5897 -2.6593515383004105 1.3046497836350857 8.873811202415515 0 0 0
134 45 1 0.5897 -2.246805506470449 2.7333407586319387 6.148550442257721 1 0 0
77 26 1 0.5897 0.5275854763699082 1.8484217038120623 5.529390358306841 0 0 0
135 45 1 0.5897 -1.7405183594334996 3.8937576327623726 6.978714745367389 1 0 0
98 33 1 0.5897 -4.0148010213976875 5.093035865118796 8.615187112562667 1 0 0
669 223 1 0.5897 -5.313779704654763 1.797981527580966 8.941017505309539 1 0 0
401 134 1 0.5897 2.510409425157162 0.4230838224700726 8.935226619135783 0 1 0
124 42 2 -1.1794 -4.9949885559895115 2.5920467391501045 7.308829920862717 1 0 0
133 45 2 -1.1794 -2.5457802558768927 3.4721677921150835 6.678647657971522 1 0 0
522 174 1 0.5897 2.1481831625357977 5.521017052162008 9.208974385248606 0 0 0
68 23 1 0.5897 -3.1352308457550655 0.23864398301135686 7.909838459361588 0 0 0
22 8 2 -1.1794 0.22508919173398922 2.8618066917213048 9.545610379240761 0 0 0
5 2 1 0.5897 3.0028159314292004 0.24857573153071 5.164985693583983 0 0 0
87 29 1 0.5897 -3.3966488264816013 1.037487092520125 4.892662130996936 1 0 0
4 2 2 -1.1794 3.640256688867442 0.9496272561417287 5.300996783010428 0 0 0
24 8 1 0.5897 0.9218679833068064 3.517980947807349 9.561175008859973 0 0 0
85 29 2 -1.1794 -2.4608164140213695 1.2303264381149586 4.835772424579242 1 0 0
575 192 1 0.5897 1.133016338699635 0.20654875095309877 11.7823295865893 0 0 0
523 175 2 -1.1794 -2.5277337647564764 2.634211524344457 10.184271851135733 0 0 0
668 223 1 0.5897 -5.643398446387305 1.7407844178345202 10.417565163710293 1 0 0
23 8 1 0.5897 0.41613828771035744 2.291079121932804 10.289872856340605 0 0 0
627 209 1 0.5897 -6.792883857402144 2.8968637315832373 11.997820983818276 1 0 0
525 175 1 0.5897 -1.6657319582690957 2.8682269519774346 9.840156759499932 0 0 0
625 209 2 -1.1794 -5.856841888468658 2.713600141732749 11.918046469317677 1 0 0
524 175 1 0.5897 -3.0834492239545495 3.383030836497703 9.968635483965192 0 0 0
535 179 2 -1.1794 -1.9900615117659566 1.0740912215882341 12.430738067142197 0 0 0
536 179 1 0.5897 -2.1375122014118384 1.6073085456117544 13.2119179093084 0 0 0
537 179 1 0.5897 -2.1352183738598596 1.6743828797944835 11.699471532246726 0 0 0
550 184 2 -1.1794 -1.7121293606892936 4.939965352371718 12.25146226227287 0 0 0
626 209 1 0.5897 -5.678526314448927 2.072350911318498 12.605918686656823 1 0 0
552 184 1 0.5897 -2.6241631731110404 4.799588604771644 12.50582338473246 0 0 0
556 186 2 -1.1794 0.5394283086249017 3.6830200824635186 13.13800771343841 0 0 0
557 186 1 0.5897 0.3705055685236873 2.847059401531498 13.572629359900537 0 0 0
558 186 1 0.5897 -0.2806059378086321 3.890576163265682 12.69021162596587 0 0 0
559 187 2 -1.1794 -4.157696189210761 4.348399552209226 13.276849687065477 0 0 0
560 187 1 0.5897 -4.756966649635462 3.8963792807889726 12.682883436021514 0 0 0
561 187 1 0.5897 -3.7956805215109384 3.653735933309813 13.826840980397114 0 0 0
574 192 2 -1.1794 0.5004956598625556 0.749766746358895 11.312358532742877 0 0 0
576 192 1 0.5897 -0.28463008247009647 0.7317482191229788 11.859645931618468 0 0 0
986 329 1 0.5897 -4.360389183268154 0.2926168323768641 10.735593889176931 1 1 0
551 184 1 0.5897 -1.358761123944448 5.513164891621396 12.931802487474663 0 0 0
662 221 1 0.5897 -7.565921373645171 4.440417204148247 13.973221362608687 1 0 0
987 329 1 0.5897 -3.3043743127836405 0.09103957875327874 11.801308148421688 1 1 0
667 223 2 -1.1794 -5.437045799437069 1.1851310339894465 9.665918594389094 1 0 0
99 33 1 0.5897 -3.9681648799929854 5.527384752917527 10.064747070169373 1 0 0
663 221 1 0.5897 -6.716584274531278 5.676799467951741 13.7680411021371 1 0 0
591 197 1 0.5897 -5.050340040749308 0.2443486708189419 14.324465782326405 1 0 0
593 198 1 0.5897 -7.525650312086049 0.8665178986941736 14.385683802790801 1 0 0
589 197 2 -1.1794 -5.644769782187446 0.9554219385432658 14.085572496572325 1 0 0
520 174 2 -1.1794 2.285844151023454 4.7487323618573125 9.757422037867634 0 0 0
587 196 1 0.5897 -1.2911285184083674 5.638977493096224 10.63356425416456 0 0 0
606 202 1 0.5897 -5.995018562536531 4.835704560445741 9.777941200982257 1 0 0
20 7 1 0.5897 -5.602313763405451 1.992222279316161 18.752552309188054 0 0 -1
628 210 2 -1.1794 -8.116894844684875 2.599397189142268 16.89159080921316 1 0 0
164 55 1 0.5897 -8.400370021354782 2.0299840982737463 18.543123084508533 1 0 -1
508 170 2 -1.1794 0.3302460836770509 1.3461896730336178 14.584354782673643 0 0 0
638 213 1 0.5897 -6.372098262512015 2.852404703491067 16.347234236230797 1 0 0
639 213 1 0.5897 -5.915546117310921 3.7272411346485605 15.199064727416017 1 0 0
510 170 1 0.5897 0.2588740640033329 1.681849591615497 15.47795889759016 0 0 0
637 213 2 -1.1794 -5.602278546834059 3.071867086381389 15.82233876041396 1 0 0
538 180 2 -1.1794 -3.1553904337455396 1.114650979345442 16.944555259695655 0 0 0
539 180 1 0.5897 -2.9589124421886055 1.758280220091171 17.625320150588358 0 0 0
540 180 1 0.5897 -4.068970293408618 0.8739287022191745 17.09837350410723 0 0 0
547 183 2 -1.1794 -3.7092390582935666 4.85868461009998 16.947576590803095 0 0 0
630 210 1 0.5897 -8.229287892719478 1.9135747349231436 16.233318844284945 1 0 0
549 183 1 0.5897 -4.3149940972339635 4.175497581159137 16.660166423964803 0 0 0
562 188 2 -1.1794 -1.092016384430213 4.402854978276604 16.185955046092843 0 0 0
563 188 1 0.5897 -0.9761712088782133 5.229130020949909 15.716815787813616 0 0 0
564 188 1 0.5897 -1.9312086139873177 4.498110460628986 16.63641615556771 0 0 0
571 191 2 -1.1794 -5.6940720147808666 0.34596274292852514 17.868431163552376 0 0 0
601 201 2 -1.1794 -7.322767485902157 4.652582761296532 18.96125158620385 1 0 0
581 194 1 0.5897 -2.870875972520129 2.0524226817522857 15.380551214297839 0 0 0
582 194 1 0.5897 -1.9066150344145818 3.1749353744951097 15.060709439656456 0 0 0
629 210 1 0.5897 -8.636506364628652 3.333570458351704 16.564394742792796 1 0 0
590 197 1 0.5897 -5.475138133081474 1.6383426116418591 14.734533364244465 1 0 0
84 28 1 0.5897 -3.88097132509053 5.701605413166508 18.641655803950457 0 0 -1
165 55 1 0.5897 -9.276912166949888 0.8360375468454222 18.856570883415817 1 0 -1
580 194 2 -1.1794 -2.572764633664435 2.613283660851951 14.664401416245086 0 0 0
548 183 1 0.5897 -3.8731555511238156 5.590563875310545 16.352906432232857 0 0 0
661 221 2 -1.1794 -6.991504537923262 5.049718020824281 14.436983241236272 1 0 0
603 201 1 0.5897 -6.585935246088868 4.053102757467985 19.078512845300644 1 0 0
614 205 1 0.5897 -7.3131619171113496 5.629100984337564 17.522652660873746 1 0 0
528 176 1 0.5897 -3.562873644313564 3.031847261433161 19.033353845691288 0 0 0
526 176 2 -1.1794 -2.624779953425045 2.8499469117699427 18.978474863990208 0 0 0
112 38 2 -1.1794 -2.8813659079278646 6.374608285703455 2.5551069412660845 1 0 0
145 49 2 -1.1794 -0.4611144353358272 6.723853831583455 1.4912155693849185 1 0 0
146 49 1 0.5897 -1.1865925507116653 6.490914618064811 2.0706314255728917 1 0 0
147 49 1 0.5897 -0.8218060129943119 7.396112959646014 0.9132415760415641 1 0 0
255 85 1 0.5897 -2.2441152644135824 8.997003856162834 3.840279835056916 1 0 0
289 97 2 -1.1794 -2.4090065504519638 9.957514503775382 2.3334525226182214 1 0 0
290 97 1 0.5897 -1.8143273227481171 10.64796581753863 2.626585967067671 1 0 0
291 97 1 0.5897 -3.2839412006713653 10.322803296110227 2.4644669700695285 1 0 0
332 111 1 0.5897 -2.007488990800298 9.15729957316218 0.8343650259342762 1 0 0
188 63 1 0.5897 0.8779295717302675 9.816077751436666 1.0566715688661392 0 0 0
200 67 1 0.5897 0.5394165488636924 7.980315413357886 2.3741569660907222 0 0 0
240 80 1 0.5897 3.2665139709194984 7.497488822859207 1.222993830654812 0 0 0
199 67 2 -1.1794 1.090165802014492 8.750983657749615 2.512208645682727 0 0 0
174 58 1 0.5897 3.4869608398098144 9.373357245345384 4.5923369148524165 0 0 0
245 82 1 0.5897 1.0343581099548365 9.60417015424979 4.089298662716603 0 0 0
187 63 2 -1.1794 0.9870873586342102 10.239928744606878 0.20537303054044875 0 0 0
238 80 2 -1.1794 3.645412751880735 8.049099777033547 1.9074256951203707 0 0 0
253 85 2 -1.1794 -2.4044150977172096 8.676792304365724 4.728008552042365 1 0 0
9 3 1 0.5897 -0.6703169607840147 5.870876501324489 4.342815240325978 0 0 0
220 74 2 -1.1794 3.742558229256523 10.83894075733996 3.523303395278309 0 0 0
10 4 2 -1.1794 2.042660779527666 6.4864686794820745 4.711905862486309 0 0 0
694 232 2 -1.1794 3.846267258461131 10.318344752859206 0.2360697768096788 0 0 1
201 67 1 0.5897 1.9860365847359702 8.421168236414719 2.4433833424511975 0 0 0
224 75 1 0.5897 -0.1504330789475805 11.247349134883937 3.919968906436367 0 0 0
239 80 1 0.5897 3.863787843346141 8.867920513462364 1.462316469497505 0 0 0
221 74 1 0.5897 4.513445326312658 10.7398187155021 2.9645761402981576 0 0 0
113 38 1 0.5897 -3.1969351050707937 5.970019379507763 3.3632140400489985 1 0 0
189 63 1 0.5897 1.9349067888319587 10.310029840801203 0.0918208119928667 0 0 0
12 4 1 0.5897 1.1143434163776185 6.705742270991057 4.791011359448842 0 0 0
696 232 1 0.5897 4.487384801183853 11.02508604932553 0.15988171581585062 0 0 1
82 28 2 -1.1794 2.4381865761430834 6.27138680347707 0.081554003781804 0 0 0
114 38 1 0.5897 -3.0995927776182186 5.743244672502187 1.8695028628556074 1 0 0
222 74 1 0.5897 3.0922792540986714 11.26116987870952 2.9621411744088433 0 0 0
331 111 2 -1.1794 -1.7237567222134274 8.665265820529266 0.0638424989657653 1 0 0
172 58 2 -1.1794 3.7088239862579053 8.657699686227426 5.187953334330341 0 0 0
65 22 1 0.5897 2.5438030347768112 7.808982259277732 8.69644375090113 0 0 0
302 101 1 0.5897 -1.9937231076224826 10.014475032190006 6.065993396189417 1 0 0
64 22 2 -1.1794 2.265383125781897 7.096970089156433 8.120400739038155 0 0 0
66 22 1 0.5897 3.0298940556566176 6.9183958487771235 7.57277952389618 0 0 0
293 98 1 0.5897 -4.016795621360221 10.425672788972099 7.166233861358788 1 0 0
109 37 2 -1.1794 -4.125241012726684 6.313162581101998 7.2930567258511445 1 0 0
110 37 1 0.5897 -4.089152729576324 6.068843481077767 6.368224097059633 1 0 0
111 37 1 0.5897 -5.023162619845211 6.616640683556713 7.4263131686874795 1 0 0
301 101 2 -1.1794 -2.2908668461436306 10.759819202660461 6.587914925556057 1 0 0
294 98 1 0.5897 -4.925057968970959 9.69351335936437 8.131187889093926 1 0 0
191 64 1 0.5897 0.4348674333716076 9.70721069658584 8.77030103215905 0 0 0
173 58 1 0.5897 3.1197929965235707 7.945823066557817 4.9378130614528075 0 0 0
202 68 2 -1.1794 0.304379529722973 8.764349839444504 7.135082752964266 0 0 0
203 68 1 0.5897 -0.5092679119435757 8.424879630777315 7.507947019926892 0 0 0
204 68 1 0.5897 0.9803714225938949 8.162593115944281 7.44646730356965 0 0 0
588 196 1 0.5897 -1.4074416948097994 6.58642030025847 9.458553944717552 0 0 0
235 79 2 -1.1794 -2.0516280118558177 7.822796093610162 8.208895252944275 0 0 0
236 79 1 0.5897 -2.8324349503919173 7.414764788835617 7.834641118533026 0 0 0
237 79 1 0.5897 -2.368786332949645 8.639680276612273 8.59404047761336 0 0 0
292 98 2 -1.1794 -4.908279658229577 10.089999944676544 7.260114406219481 1 0 0
246 82 1 0.5897 0.6489413856319093 9.543250280285758 5.552124805900951 0 0 0
8 3 1 0.5897 -0.618777294530596 6.217270372614446 5.815700405529875 0 0 0
303 101 1 0.5897 -1.4848448446798117 11.169482623350424 6.902095745965606 1 0 0
837 279 1 0.5897 -6.019020390969979 8.17856458816589 9.211246199068876 1 0 0
257 86 1 0.5897 -4.221455296247792 8.32966200210622 4.89847848555895 1 0 0
7 3 2 -1.1794 -0.6424797363952237 6.614377811350964 4.945083071289232 0 0 0
228 76 1 0.5897 1.8123879385809678 11.23276650146342 5.831207155376336 0 0 0
11 4 1 0.5897 2.1866773540665525 5.810431737782505 5.37403017572806 0 0 0
692 231 1 0.5897 -1.4831694174754952 10.341890134613953 9.61086600965047 0 0 0
244 82 2 -1.1794 0.8615525219363076 10.15851202652939 4.850317181313493 0 0 0
254 85 1 0.5897 -1.801705525432089 7.940287424323808 4.8298597417609495 1 0 0
617 206 1 0.5897 -7.043743219740335 7.252475710084815 11.902902065762175 1 0 0
513 171 1 0.5897 -3.8495717782762187 5.978886517340062 14.120386113442748 0 0 0
836 279 1 0.5897 -4.816756468520431 8.187773145128373 10.131067080343069 1 0 0
726 242 1 0.5897 -0.08254055719115616 11.291615088230188 12.44311991422469 0 0 0
192 64 1 0.5897 0.9552521497317779 10.756578996384285 9.729516353877818 0 0 0
616 206 2 -1.1794 -6.487255312889209 6.5222930497961915 12.173464806548933 1 0 0
795 265 1 0.5897 -5.821380908568295 9.722760010129122 11.18318785945982 1 0 0
793 265 2 -1.1794 -5.998384965497133 10.119873391160906 12.036000379085142 1 0 0
649 217 2 -1.1794 -3.937455843836241 6.94295370188171 11.122977060597883 1 0 0
650 217 1 0.5897 -3.3176772518545126 7.413808704299895 11.680124908973237 1 0 0
651 217 1 0.5897 -4.6888618934347175 6.772178121305417 11.690898831325145 1 0 0
759 253 1 0.5897 -5.80146075454614 8.992455410825203 13.576418968575949 1 0 0
678 226 1 0.5897 0.442472786934057 9.42332666590189 13.992199052635216 0 0 0
744 248 1 0.5897 0.08405498694875879 7.218762412317955 10.821500706090571 0 0 0
794 265 1 0.5897 -5.31403521528782 10.781125039764527 12.139501045976319 1 0 0
693 231 1 0.5897 -2.4141077619742135 9.666231591588144 10.595240773373742 0 0 0
703 235 2 -1.1794 -2.1452087498725607 8.6552558811471 12.162680336333164 0 0 0
704 235 1 0.5897 -1.2130148393387588 8.44040456632453 12.131637635794037 0 0 0
705 235 1 0.5897 -2.258841402482121 9.111006259390038 12.996763967515545 0 0 0
724 242 2 -1.1794 0.5896209731692394 10.787220588182436 12.901183296958562 0 0 0
742 248 2 -1.1794 0.4071987825770744 7.890108323340015 11.422460312517648 0 0 0
743 248 1 0.5897 0.3882145133116901 8.69910006293854 10.911218302210003 0 0 0
750 250 1 0.5897 -2.998046989233889 10.734904653573395 14.126298559075805 0 0 0
586 196 2 -1.1794 -0.827551118610308 5.932910911262555 9.849325054179442 0 0 0
618 206 1 0.5897 -6.612412903130105 5.860307000018151 11.493451440182776 1 0 0
835 279 2 -1.1794 -5.483573819311982 8.759801550311686 9.751373079037306 1 0 0
691 231 2 -1.1794 -2.4034469704071793 10.1199146207041 9.752447245734615 0 0 0
757 253 2 -1.1794 -5.602434125822311 8.504682915897723 14.375569524763293 1 0 0
514 172 2 -1.1794 -0.9750519131840534 6.469207529545119 14.348353538020756 0 0 0
190 64 2 -1.1794 0.3078665288258424 10.055643105387364 9.652788334495817 0 0 0
762 254 1 0.5897 -7.587376073864317 8.283476329202706 14.80715871206691 1 0 0
333 111 1 0.5897 -8.196209771948245 9.448155306922875 18.552012608132138 1 0 -1
749 250 1 0.5897 -2.6823370544361893 9.732220261034053 15.21563993566801 0 0 0
615 205 1 0.5897 -7.195218716353561 5.820408479334042 16.02547724961154 1 0 0
653 218 1 0.5897 -9.070131289876574 6.786244974809131 17.286152398126365 1 0 0
796 266 2 -1.1794 -7.868225604895626 10.312759987720357 17.109129793350437 1 0 0
568 190 2 -1.1794 -1.2617268534550767 7.312462137194851 17.93544179384592 0 0 0
569 190 1 0.5897 -1.5023435525612916 6.542435387835943 18.450656779977255 0 0 0
83 28 1 0.5897 -4.681184369501351 6.984970650755098 18.706720292961503 0 0 -1
613 205 2 -1.1794 -7.3664747718371535 6.2961730433122876 16.83827066227169 1 0 0
570 190 1 0.5897 -0.4880317646061272 7.039323250178559 17.442482854242705 0 0 0
805 269 2 -1.1794 -5.349309203147051 10.835415288078899 15.824686066823801 1 0 0
797 266 1 0.5897 -6.984560717131396 10.541323572197921 16.82076633530482 1 0 0
695 232 1 0.5897 -2.777432224671145 10.038625712062872 18.5298544005824 0 0 0
758 253 1 0.5897 -5.484837565500452 9.178618251440747 15.045112056662987 1 0 0
706 236 2 -1.1794 -3.0017397266420716 9.234809209038959 17.001338981776367 0 0 0
707 236 1 0.5897 -3.8577821940641 8.806739809478893 17.015744682479077 0 0 0
708 236 1 0.5897 -2.378939109135538 8.53195455990313 17.186197025436044 0 0 0
798 266 1 0.5897 -8.174056422289006 9.675599872126186 16.463538070196222 1 0 0
741 247 1 0.5897 -5.8745325571776466 8.791202839816274 18.08070149667699 0 0 0
739 247 2 -1.1794 -5.474475709781449 8.08024819058301 17.579972635988405 0 0 0
740 247 1 0.5897 -6.213655316264434 7.546782510386753 17.287932536448356 0 0 0
516 172 1 0.5897 -0.4594809031409257 7.262060586107101 14.496247642691511 0 0 0
807 269 1 0.5897 -4.721707219254456 11.324524562219874 16.356788300633664 1 0 0
676 226 2 -1.1794 0.5355405893761844 8.77414833535817 14.689404555827915 0 0 0
512 171 1 0.5897 -4.254740717029131 7.345148162992842 14.631306246003696 0 0 0
511 171 2 -1.1794 -3.6329266217119267 6.633764916373088 14.784087184897867 0 0 0
515 172 1 0.5897 -1.8794907298551076 6.737410012806349 14.510175076445325 0 0 0
748 250 2 -1.1794 -2.3094039543690377 10.147947665606885 14.438206169758734 0 0 0
280 94 2 -1.1794 -3.370551986324379 13.841905030233088 2.5728912147677825 1 0 0
281 94 1 0.5897 -3.4380618802489575 13.417418647257403 3.4281748540655057 1 0 0
282 94 1 0.5897 -2.463859620875226 14.145168006923221 2.5262549689983436 1 0 0
500 167 1 0.5897 -1.5865108863810382 16.043368681820603 0.6114909736954004 1 0 0
313 105 2 -1.1794 -0.9334404808169832 14.818332936955931 1.867388051534448 1 0 0
423 141 1 0.5897 -2.4092716117767656 16.597146764471145 4.131955449837619 1 0 0
315 105 1 0.5897 -0.5610782974492174 14.151409858869307 1.2904913069480919 1 0 0
223 75 2 -1.1794 -0.7177308298490743 11.792813055953278 3.375274975768555 0 0 0
225 75 1 0.5897 -0.901569213803604 12.561643391263715 3.9150688245972547 0 0 0
314 105 1 0.5897 -0.1734795650145875 15.2430979626799 2.2651989730867848 1 0 0
250 84 2 -1.1794 2.588025618067249 13.694165136534192 0.10340694382520237 0 0 0
215 72 1 0.5897 2.0291507144045697 12.900654186863754 1.5427673145956566 0 0 0
216 72 1 0.5897 0.9488556453715526 12.288113209989719 2.4087244463348356 0 0 0
367 123 2 -1.1794 1.190528557479535 16.220377531134254 2.6163531731920076 0 0 0
369 123 1 0.5897 1.1161492967213276 16.747041476534424 3.4122198664567676 0 0 0
180 60 1 0.5897 2.0583103355445527 13.57929380032679 3.9211359947772544 0 0 0
214 72 2 -1.1794 1.8742453584980812 12.532732079133815 2.4127818378563615 0 0 0
184 62 2 -1.1794 5.565539989765469 12.504898674030581 0.37156728516818743 0 0 0
368 123 1 0.5897 2.1291121319255177 16.057609557169023 2.5231198276946025 0 0 0
408 136 1 0.5897 3.9504062974416554 16.34149001261868 1.1705659234748467 0 0 0
252 84 1 0.5897 3.0282572719113183 14.304281141431899 0.6952130612676765 0 0 0
407 136 1 0.5897 4.597439871317129 15.238120781286469 1.9801728438133601 0 0 0
406 136 2 -1.1794 3.7456771185338793 15.563202097906794 1.6888602272151494 0 0 0
770 257 1 0.5897 -1.3471609251686247 12.26275562166725 0.16776385593951365 1 0 1
268 90 2 -1.1794 -3.1937394676904716 12.417126929921487 0.1438588922584248 1 0 0
499 167 2 -1.1794 -2.228667687402036 16.638837383496195 0.22538281843447036 1 0 0
269 90 1 0.5897 -3.3816301073793444 12.759002254964885 1.0180079859859765 1 0 0
178 60 2 -1.1794 1.9894608257415296 14.015226686364295 4.77056965738965 0 0 0
769 257 2 -1.1794 -0.44788520598961545 12.587837343125823 0.12462785293109029 1 0 1
771 257 1 0.5897 0.09294147956791754 11.798153203002503 0.1255394368085023 1 0 1
371 124 1 0.5897 0.05070869498666086 16.917182524852198 7.929940027115983 0 0 0
754 252 2 -1.1794 -1.0153917217297965 13.80114147110025 9.577863715984245 0 0 0
1004 335 1 0.5897 -4.97677690003201 16.925329278286036 9.063404321633463 1 0 0
756 252 1 0.5897 -1.6230365068086234 14.270861740226145 9.006740133120282 0 0 0
179 60 1 0.5897 2.1271706915075246 13.316932102360033 5.4105604402121354 0 0 0
211 71 2 -1.1794 -0.3297883148867742 12.327867874722502 7.465775191591825 0 0 0
212 71 1 0.5897 -0.37843518950180366 12.852692021474624 8.264840373973167 0 0 0
213 71 1 0.5897 -0.6313837698212961 12.916086997074514 6.773553424244422 0 0 0
226 76 2 -1.1794 2.1713506307646284 11.865396843472107 6.453478564697332 0 0 0
227 76 1 0.5897 1.4247881871407344 12.117774045389247 6.996794862242513 0 0 0
232 78 2 -1.1794 1.7974046852115713 14.361451815373407 8.377178435312539 0 0 0
279 93 1 0.5897 -5.211814431271119 13.999448793252508 7.5265571015578105 1 0 0
234 78 1 0.5897 1.3232885564573316 15.018326691792176 7.8674780648205935 0 0 0
175 59 2 -1.1794 -0.8097720191919437 13.860523451391394 5.196220267230793 0 0 0
267 89 1 0.5897 -3.9814101305738867 12.676229797574685 8.76711314660488 1 0 0
277 93 2 -1.1794 -4.391228934302591 13.577674024348395 7.271851837466199 1 0 0
278 93 1 0.5897 -3.7191561776620667 14.237577575838744 7.442547779693256 1 0 0
690 230 1 0.5897 1.7605889590730364 12.90538628287458 9.244374206406077 0 0 0
233 78 1 0.5897 2.658925367954631 14.31234477305018 7.962928093178626 0 0 0
326 109 1 0.5897 -3.0144438087235947 11.878345734100884 5.2813348811615475 1 0 0
327 109 1 0.5897 -4.065997280151672 12.92099362651448 5.595583801635376 1 0 0
372 124 1 0.5897 0.15007342972427784 16.750862510781385 6.4284256439432506 0 0 0
403 135 2 -1.1794 -2.5478728312518566 15.468352321614715 8.102952149892898 0 0 0
370 124 2 -1.1794 -0.0017313962690654883 16.259901552546257 7.236008994767504 0 0 0
404 135 1 0.5897 -1.7508233160898996 15.665896350143656 7.611029328509486 0 0 0
405 135 1 0.5897 -2.6414630944849846 16.200582773837912 8.712340160057476 0 0 0
425 142 1 0.5897 -4.190447903315237 15.850820056869244 4.975656231189835 1 0 0
340 114 2 -1.1794 3.692363099622587 16.164226671383407 5.025164892423094 0 0 0
341 114 1 0.5897 3.1342935531914264 15.389346338006145 4.958586320750124 0 0 0
325 109 2 -1.1794 -3.67262428963736 12.437643122274928 4.869000521735447 1 0 0
422 141 1 0.5897 -2.243624863592197 16.93068034332822 5.599381830871716 1 0 0
462 154 1 0.5897 -4.770036461629254 16.922039775512513 6.857729388484165 1 0 0
176 59 1 0.5897 -1.3190197028990172 14.662429021820694 5.079151900872852 0 0 0
421 141 2 -1.1794 -2.2724445693695667 16.193753941973938 4.989134532345022 1 0 0
177 59 1 0.5897 0.08982446477855 14.115597633403802 4.991487559520183 0 0 0
773 258 1 0.5897 -6.8187298278712785 12.871268489306527 10.74721315428239 1 0 0
774 258 1 0.5897 -5.85153523353068 12.248443016535976 9.7630423761319 1 0 0
831 277 1 0.5897 -7.543516747180245 12.033717024611065 14.237742200373258 1 0 0
718 240 2 -1.1794 -1.3967716714793985 12.396392567694908 11.911842161535084 0 0 0
719 240 1 0.5897 -1.3230885837371669 12.774256260498598 11.03545210784375 0 0 0
720 240 1 0.5897 -1.293575944271927 13.141446426559575 12.5039091398183 0 0 0
1003 335 2 -1.1794 -5.387759263374516 16.40006132113931 9.750067775138177 1 0 0
1005 335 1 0.5897 -4.671025370515207 15.88390280868377 10.118708616149377 1 0 0
912 304 1 0.5897 1.0478536378821737 15.093605843903468 11.326679236596151 0 0 0
728 243 1 0.5897 -3.1197303289272877 11.957500539097728 12.511642874025068 0 0 0
729 243 1 0.5897 -4.032197267796915 12.759470380003874 13.415060251417309 0 0 0
755 252 1 0.5897 -0.4200757125822179 14.476862898101318 9.902349101295105 0 0 0
727 243 2 -1.1794 -3.9073647727573833 11.883234414480482 13.050530795555865 0 0 0
873 291 1 0.5897 -2.4416813961458788 15.67109684608341 11.937199864388026 0 0 0
784 262 2 -1.1794 -6.436920769421378 13.891673772658269 12.149419603337932 1 0 0
911 304 1 0.5897 -0.20101737998327884 15.921808116985483 11.5410508945644 0 0 0
786 262 1 0.5897 -6.620846809751923 13.52261940835553 13.013285438812634 1 0 0
817 273 2 -1.1794 -3.8837115620366602 14.591319866265406 11.242741291529542 1 0 0
818 273 1 0.5897 -4.730331636460956 14.460238805121964 11.669723373023036 1 0 0
819 273 1 0.5897 -3.728971363937249 13.778181221351911 10.7619857455393 1 0 0
682 228 2 -1.1794 -1.0235780070043408 14.165029594623123 14.048754510939109 0 0 0
910 304 2 -1.1794 0.47271668762103225 15.722435244616673 10.890974929851268 0 0 0
871 291 2 -1.1794 -1.9230488692673884 16.458828916203885 12.100934532216376 0 0 0
688 230 2 -1.1794 1.9772996764552957 12.131510280361923 9.764274467015024 0 0 0
846 282 1 0.5897 0.3799278690918584 16.902388206902252 14.267936763911896 0 0 0
925 309 2 -1.1794 -5.832803095411041 16.093287720957626 14.077605875600062 1 0 0
785 262 1 0.5897 -7.048956539603468 14.622742195851908 12.065604780830101 1 0 0
725 242 1 0.5897 0.9633662287133324 11.402702544872664 13.531890115149034 0 0 0
684 228 1 0.5897 -0.44637498360034655 14.849986506681393 14.386340207315213 0 0 0
680 227 1 0.5897 -2.770450080373829 14.290075112634481 14.346465506394724 0 0 0
926 309 1 0.5897 -5.151513724241071 15.422093762261163 14.115181415676679 1 0 0
265 89 2 -1.1794 -3.973858075873256 12.388513533427716 9.680031214385757 1 0 0
266 89 1 0.5897 -3.3577389724581987 11.656233929878713 9.695658267269717 1 0 0
875 292 1 0.5897 -3.019149140906479 16.69849624052755 16.076737201311683 0 0 0
874 292 2 -1.1794 -3.2271314370139486 16.333255909696742 16.936762065571752 0 0 0
737 246 1 0.5897 -0.814243281274913 15.374394570614468 18.283577921011503 0 0 0
876 292 1 0.5897 -2.5212111386287903 15.710610062672767 17.11006361584761 0 0 0
907 303 2 -1.1794 -5.702562342286853 15.596781946145134 17.948814178254565 0 0 0
681 227 1 0.5897 -3.768852779474461 13.85650509187729 15.398772832421889 0 0 0
185 62 1 0.5897 -1.1988889944600425 13.307664254647186 18.88831363431762 0 0 -1
830 277 1 0.5897 -7.189968037738353 13.09854083173849 15.25422047557767 1 0 0
715 239 2 -1.1794 -3.575475877643804 12.58082249827129 16.8396083409109 0 0 0
716 239 1 0.5897 -3.518699846350102 13.101349479816712 17.640934838400156 0 0 0
717 239 1 0.5897 -2.665514928549163 12.451364058293088 16.572480430524468 0 0 0
730 244 2 -1.1794 -1.0071804794511783 12.116183284168173 15.808130274849397 0 0 0
736 246 2 -1.1794 -1.1328074479613086 14.71684879495901 17.665161271448756 0 0 0
909 303 1 0.5897 -4.939641699260558 15.722765008033358 17.384561088055587 0 0 0
683 228 1 0.5897 -0.9289887642614856 13.443426560728447 14.670468924132875 0 0 0
732 244 1 0.5897 -0.2993873318399487 11.705010240058959 16.304119099421317 0 0 0
781 261 2 -1.1794 -7.581540304520291 13.857604098339854 16.8485329311227 1 0 0
782 261 1 0.5897 -7.475665008795229 13.405002185358072 17.68528459833943 1 0 0
783 261 1 0.5897 -8.401898877478791 14.3420903670445 16.94003894208238 1 0 0