LAMMPS data file via write_data, version 30 Jul 2021, timestep = 1000000

1008 atoms
2 atom types
672 bonds
1 bond types
336 angles
1 angle types

-3.249338242862942 14.85933724241839 xlo xhi
-0.07504617423634663 22.655045174238047 ylo yhi
-0.10344608769801411 19.333444087700954 zlo zhi
0.3707856181465573 -6.569132923990078 -0.15559471155654403 xy xz yz

Masses

1 1.008
2 15.999

Pair Coeffs # lj/cut/tip4p/long/omp

1 0 0
2 0.21084 3.1668

Bond Coeffs # harmonic/omp

1 450 0.9572

Angle Coeffs # harmonic/omp

1 55 104.52

Atoms # full

122 41 1 0.5897 -2.1948849941358564 1.8491468987364672 1.4147406937341422 1 0 0
114 38 1 0.5897 -3.3134701845574432 5.425572033132871 1.848706026201208 1 0 0
56 19 1 0.5897 -0.978637880994067 3.226560782474411 2.9683613681587313 0 0 0
55 19 2 -1.1794 -0.4533205283281365 3.880821360588525 3.429122897538701 0 0 0
482 161 1 0.5897 -1.241034756926215 -0.02238020236140898 0.9435404576860829 1 1 0
86 29 1 0.5897 -2.129051439510411 1.7636724286118437 3.9071024877168625 1 0 0
121 41 2 -1.1794 -2.179729385271931 2.319667309431869 2.248197834792985 1 0 0
123 41 1 0.5897 -3.0874806770544465 2.5891248950571697 2.3881787359394164 1 0 0
158 53 1 0.5897 -3.712939418027144 4.126220010634361 4.609792372713442 1 0 0
602 201 1 0.5897 -0.5929182950909477 5.269368829452401 0.34004459689105265 1 0 1
101 34 1 0.5897 -2.805280500792988 4.2038438739235096 0.4695288760291084 1 0 0
33 11 1 0.5897 0.29837072752914384 0.46291117528523873 2.3959233679730323 0 0 0
21 7 1 0.5897 0.79875998436831 1.8904146268918534 0.8004107286822117 0 0 0
603 201 1 0.5897 -0.4718808734372728 3.7831479489925033 0.07812168292114394 1 0 1
19 7 2 -1.1794 0.8292430508286008 2.4293956575267424 0.00992100705392697 0 0 0
57 19 1 0.5897 0.2405148943804134 4.110270028629936 2.81089382660113 0 0 0
9 3 1 0.5897 -0.7649104260253852 5.463273186900504 4.33933281402446 0 0 0
113 38 1 0.5897 -2.9713942925870107 5.5673301336170065 3.3166601874598807 1 0 0
669 223 1 0.5897 -5.295968629329352 1.4631333833301876 9.019707465481616 1 0 0
98 33 1 0.5897 -3.5817095986875787 5.023523725813784 8.86363129462105 1 0 0
69 23 1 0.5897 -2.5979816509779763 1.0515162620655956 8.000980907356222 0 0 0
124 42 2 -1.1794 -4.765042679365962 2.435395923644691 7.640413738518892 1 0 0
134 45 1 0.5897 -1.8672975216261625 2.5162104320900207 6.370490041946858 1 0 0
67 23 2 -1.1794 -2.1766940173421823 0.1973815718711885 7.90481976324153 0 0 0
133 45 2 -1.1794 -2.166773286101726 3.184677391890482 6.986707752879377 1 0 0
126 42 1 0.5897 -3.919297571970098 2.8149589474541643 7.401853138128573 1 0 0
135 45 1 0.5897 -1.3929988792520431 3.7238074759567326 7.150771257803574 1 0 0
125 42 1 0.5897 -5.407804713727119 2.9681402211283827 7.172092661373059 1 0 0
159 53 1 0.5897 -2.7589316337044423 4.364922022751369 5.760851375111613 1 0 0
90 30 1 0.5897 -5.003130640497599 1.0690142679328782 6.107944303346569 1 0 0
85 29 2 -1.1794 -2.081073394042277 1.401667120010134 4.791906866218628 1 0 0
87 29 1 0.5897 -2.982925549237131 1.1582092104270818 5.0008079005015675 1 0 0
157 53 2 -1.1794 -3.1897051640694163 4.808695799808115 5.030235205233896 1 0 0
88 30 2 -1.1794 -4.738029377671886 0.780589789057116 5.234571719395431 1 0 0
99 33 1 0.5897 -3.6617314842854816 5.291694870052587 10.35148173888143 1 0 0
627 209 1 0.5897 -6.630330219227266 2.725193235485061 11.814341913293372 1 0 0
625 209 2 -1.1794 -5.720820734270513 2.4269896134787783 11.806811091451335 1 0 0
668 223 1 0.5897 -6.0060103888636975 1.3537882785057347 10.35232431008817 1 0 0
559 187 2 -1.1794 -3.8773811593522374 4.084385059807318 12.99400462610933 0 0 0
560 187 1 0.5897 -4.494731369904352 3.599257519551383 12.446432753737794 0 0 0
626 209 1 0.5897 -5.638483247010119 1.8878358785020475 12.593482381936496 1 0 0
97 33 2 -1.1794 -3.724921073522714 4.589056856567774 9.704485625889484 1 0 0
561 187 1 0.5897 -3.427573801883211 3.410360669260709 13.503555629013023 0 0 0
662 221 1 0.5897 -7.659374726221477 4.090832926722094 13.826299296329239 1 0 0
606 202 1 0.5897 -5.783536867851376 4.474941620169903 9.897940022298412 1 0 0
524 175 1 0.5897 -3.0736629061389014 2.883348621242737 10.385959790384222 0 0 0
589 197 2 -1.1794 -5.423712459372284 0.8629628592176384 14.075428029799015 1 0 0
663 221 1 0.5897 -6.8112945548641886 5.341440299814494 13.920433595985289 1 0 0
661 221 2 -1.1794 -7.192329664960687 4.643323486328113 14.453133197937845 1 0 0
523 175 2 -1.1794 -2.501754333493142 2.1279427527806645 10.24988272191571 0 0 0
593 198 1 0.5897 -7.355499525805895 0.7546069768461787 14.348892313318446 1 0 0
667 223 2 -1.1794 -5.69209917185252 0.8281380850067487 9.616518769301765 1 0 0
591 197 1 0.5897 -4.8817274399409385 0.17289017754864475 14.457981053477557 1 0 0
571 191 2 -1.1794 -5.967013366444283 0.10368793716411465 17.78714285828363 0 0 0
164 55 1 0.5897 -8.54472017951521 1.4014744336369538 18.248511012437213 1 0 -1
637 213 2 -1.1794 -5.67248434607682 2.9218962647790225 15.858246947669201 1 0 0
629 210 1 0.5897 -8.84956948503958 3.1980729791647393 16.65861209276604 1 0 0
639 213 1 0.5897 -6.0748482551784 3.4205092975399816 15.1470809709945 1 0 0
20 7 1 0.5897 -5.796106274808145 1.6462528877943634 18.726184313194054 0 0 -1
638 213 1 0.5897 -6.3938644642560245 2.736514579942931 16.459492955974316 1 0 0
549 183 1 0.5897 -4.451411820758244 4.131473341697988 16.84338523874718 0 0 0
628 210 2 -1.1794 -8.214258528496273 2.49972062715532 16.816323954735083 1 0 0
590 197 1 0.5897 -5.351285356669191 1.593385958679049 14.68986491274602 1 0 0
165 55 1 0.5897 -9.57208480590895 0.45797870998790713 18.83708027022097 1 0 -1
630 210 1 0.5897 -8.169652760941695 2.0240493043360743 15.98685001509028 1 0 0
163 55 2 -1.1794 -8.91501562736882 1.1097313754722493 19.08160769596987 1 0 -1
601 201 2 -1.1794 -7.595226916984851 4.385980526947577 19.330856179749706 1 0 0
187 63 2 -1.1794 1.0199714206158585 10.399543208972467 0.24206037222448828 0 0 0
291 97 1 0.5897 -3.19115386328858 10.367080406368336 2.4917062562158065 1 0 0
112 38 2 -1.1794 -2.9206840390367916 6.02889686584951 2.479587770620165 1 0 0
289 97 2 -1.1794 -2.2733014657445896 10.23583963352904 2.2538941701991293 1 0 0
145 49 2 -1.1794 -0.42639253494790985 6.837299093187339 1.553599498577419 1 0 0
146 49 1 0.5897 -1.1942199690036936 6.540091864855811 2.0417754717599825 1 0 0
147 49 1 0.5897 -0.7528118737688079 7.548831428147826 1.0026973801507622 1 0 0
332 111 1 0.5897 -1.893463091806686 9.53508595362331 0.5034233527972485 1 0 0
290 97 1 0.5897 -1.8093846447943256 10.956083850421404 2.680882063978367 1 0 0
255 85 1 0.5897 -1.7495345995520168 9.032085818138292 3.9930594081670145 1 0 0
331 111 2 -1.1794 -1.5998441559868144 8.825957095752582 -0.06857017445658395 1 0 0
301 101 2 -1.1794 -2.101548738710035 10.583219089813264 6.835686422631317 1 0 0
256 86 2 -1.1794 -4.514619119634606 8.189442205890177 5.034883318951355 1 0 0
235 79 2 -1.1794 -2.0445234461930952 7.7689844716399445 8.365128488208683 0 0 0
294 98 1 0.5897 -4.647679314605339 9.502890867791043 8.32182211465491 1 0 0
110 37 1 0.5897 -3.7215326572417347 5.926020386044111 6.490191794317541 1 0 0
236 79 1 0.5897 -2.7164358632744987 7.203445807039973 7.984333121737112 0 0 0
109 37 2 -1.1794 -3.9274872933936598 6.168624946203095 7.392922752700255 1 0 0
302 101 1 0.5897 -1.7340084222710592 9.89975597727394 6.275295504783354 1 0 0
237 79 1 0.5897 -2.5359113538055182 8.460093067652902 8.809147671261005 0 0 0
292 98 2 -1.1794 -4.489667565050692 9.617443946637486 7.3847121961614555 1 0 0
293 98 1 0.5897 -3.607512101459816 9.985471659243732 7.333311470017515 1 0 0
111 37 1 0.5897 -4.82100704542111 6.5094788480243135 7.351894072885478 1 0 0
258 86 1 0.5897 -4.5467757046319655 8.506115479271227 5.937636751798739 1 0 0
303 101 1 0.5897 -1.3760560927159182 11.190598834885298 6.980757630024449 1 0 0
837 279 1 0.5897 -5.9337423437014145 8.150208826471394 9.41755751988456 1 0 0
257 86 1 0.5897 -3.5805284949103084 8.132133455812058 4.833815483816266 1 0 0
7 3 2 -1.1794 -0.45597046849152445 6.192101623502613 4.877544177564408 0 0 0
253 85 2 -1.1794 -1.8561108411504028 8.63093600669226 4.855629945192343 1 0 0
254 85 1 0.5897 -1.2637481987376695 7.879088832991377 4.845535049504513 1 0 0
691 231 2 -1.1794 -2.478485084900212 10.156615243290425 9.952904724881437 0 0 0
794 265 1 0.5897 -5.0475816019632544 10.745266382616377 12.467778428963335 1 0 0
759 253 1 0.5897 -5.419190993334286 8.880474428221172 13.70987374624325 1 0 0
650 217 1 0.5897 -3.3204414208852615 7.616253041960321 11.658872659804477 1 0 0
649 217 2 -1.1794 -3.9210125491369796 7.013991080364838 11.21972812781856 1 0 0
618 206 1 0.5897 -6.323951038619294 5.678660844371478 11.740486068805765 1 0 0
651 217 1 0.5897 -4.591183783226478 6.822412043160114 11.875786045825512 1 0 0
795 265 1 0.5897 -5.638497074646457 9.74610099306833 11.495910072874933 1 0 0
793 265 2 -1.1794 -5.648389741000399 10.001685033527938 12.418311664482163 1 0 0
616 206 2 -1.1794 -6.20308776443593 6.292503139307321 12.464969495995735 1 0 0
617 206 1 0.5897 -6.91845253564853 6.92118658291155 12.36872968981304 1 0 0
836 279 1 0.5897 -4.746959409879336 8.230227310042993 10.354098794444866 1 0 0
513 171 1 0.5897 -4.147931386651681 5.546928945830664 14.18980987139644 0 0 0
835 279 2 -1.1794 -5.353165349961937 8.775013940458585 9.85214221749725 1 0 0
693 231 1 0.5897 -2.5564406856063364 9.896840806051053 10.870906601333644 0 0 0
758 253 1 0.5897 -5.206798201977288 9.13166639286285 15.187652055325202 1 0 0
741 247 1 0.5897 -5.870789612387847 8.713035336816038 18.33279188947215 0 0 0
805 269 2 -1.1794 -5.4251025700146975 10.913499411270644 16.002907840878425 1 0 0
798 266 1 0.5897 -8.21759858005126 9.265156027064837 16.27564184828064 1 0 0
796 266 2 -1.1794 -7.971127940518292 9.839103667425222 17.000965973558205 1 0 0
613 205 2 -1.1794 -7.251411645934547 6.124360276578567 17.075211449667233 1 0 0
739 247 2 -1.1794 -5.3832661707842355 8.005605327405263 17.910765250459374 0 0 0
740 247 1 0.5897 -6.039609702259165 7.535149858621308 17.396773060649846 0 0 0
333 111 1 0.5897 -8.121665324767715 9.067513233133 18.49865357961948 1 0 -1
797 266 1 0.5897 -7.150034437930042 10.242587628807597 16.719408152953417 1 0 0
757 253 2 -1.1794 -5.382947507091393 8.4343344522644 14.55600782059621 1 0 0
511 171 2 -1.1794 -3.9428174272595893 6.176658938344521 14.880938891736195 0 0 0
512 171 1 0.5897 -4.564631032352729 6.8918366193902605 14.746232822272717 0 0 0
653 218 1 0.5897 -9.095658440926623 6.450290907043053 17.678789969889575 1 0 0
614 205 1 0.5897 -7.2662339747913 5.596630339814922 17.87371022856958 1 0 0
615 205 1 0.5897 -7.460089132386411 5.505965450892589 16.37496844098764 1 0 0
762 254 1 0.5897 -7.314225203419274 8.348420286126936 14.622556700170632 1 0 0
225 75 1 0.5897 -0.4292523241794357 12.559436403419014 3.947687801313978 0 0 0
280 94 2 -1.1794 -3.5862995533947775 13.827144391682923 2.574565312662891 1 0 0
500 167 1 0.5897 -1.5960458256787022 15.717731366577507 0.2632105121881873 1 0 0
314 105 1 0.5897 -0.35456970892233697 14.75414258140891 1.970034609722886 1 0 0
281 94 1 0.5897 -3.4370819517412285 13.256058149639511 3.3281523221240485 1 0 0
282 94 1 0.5897 -2.7099816286073333 14.014138910355836 2.23788657310949 1 0 0
313 105 2 -1.1794 -1.1442336913462814 14.384807615626594 1.5746778499754233 1 0 0
423 141 1 0.5897 -2.4326283706365492 16.46899040475983 3.7425982002953244 1 0 0
315 105 1 0.5897 -0.8197612533379499 13.724945815412688 0.9618498949864318 1 0 0
223 75 2 -1.1794 -0.2281199652612904 11.860065981458854 3.3258341452535864 0 0 0
421 141 2 -1.1794 -2.3075114524024976 16.112006338960335 4.621889071481905 1 0 0
369 123 1 0.5897 0.5772071116608122 16.595448335939032 1.7930516618607397 0 0 0
771 257 1 0.5897 -0.21214462644325138 11.636763655128298 0.10875191254916522 1 0 1
770 257 1 0.5897 -1.6750847414923893 12.023934074912367 0.15077477560142688 1 0 1
175 59 2 -1.1794 -0.44015492500613673 14.0057100515944 5.208123219396088 0 0 0
327 109 1 0.5897 -3.7131272759962766 12.787157003420086 5.6015824550887015 1 0 0
403 135 2 -1.1794 -2.0020524359995946 15.36918921858291 7.710242383792294 0 0 0
267 89 1 0.5897 -3.706730850335336 12.609395124982669 8.367676175109114 1 0 0
277 93 2 -1.1794 -4.071107037340841 13.798559939792563 6.968690651451979 1 0 0
278 93 1 0.5897 -3.3958742943008096 14.440177177242921 7.189393581514724 1 0 0
422 141 1 0.5897 -2.0544277670662803 16.866703836282475 5.153529711359438 1 0 0
405 135 1 0.5897 -2.321316072031766 16.179157016245952 8.108072825750943 0 0 0
326 109 1 0.5897 -2.880575178506242 11.531971886697221 5.448682316818066 1 0 0
404 135 1 0.5897 -1.160356727810833 15.608077487470528 7.322036815327887 0 0 0
265 89 2 -1.1794 -3.855369160514278 12.355458138330183 9.278554194574442 1 0 0
279 93 1 0.5897 -4.876665546590942 14.161723985248251 7.336677740361272 1 0 0
462 154 1 0.5897 -4.548794187408141 16.837725278210492 6.370304714489591 1 0 0
266 89 1 0.5897 -3.371844678129933 11.53572364490992 9.38118690122846 1 0 0
176 59 1 0.5897 -1.063017661259309 14.725425441234618 5.106554104978462 0 0 0
325 109 2 -1.1794 -3.3575731688659385 12.190194671243814 4.943190830337371 1 0 0
774 258 1 0.5897 -5.622056132456647 12.437444509469136 9.585338722176004 1 0 0
425 142 1 0.5897 -4.160293254426783 15.748508192299425 4.883761836424245 1 0 0
727 243 2 -1.1794 -3.7065284267825795 11.693985106040998 12.936939871818558 0 0 0
819 273 1 0.5897 -3.3471234697429693 13.971042730217865 10.4615239141135 1 0 0
729 243 1 0.5897 -3.917289674871761 12.44354455204626 13.493736077830727 0 0 0
785 262 1 0.5897 -6.383831173278446 14.650205571536928 11.795240429792166 1 0 0
818 273 1 0.5897 -4.281378916275162 14.368269053649067 11.584596293603182 1 0 0
784 262 2 -1.1794 -5.87576856429299 13.856033661946498 11.960937190616898 1 0 0
1003 335 2 -1.1794 -4.993834875963854 16.47190982841026 9.984966143662835 1 0 0
786 262 1 0.5897 -6.079407108238484 13.625573054835412 12.867359404849312 1 0 0
817 273 2 -1.1794 -3.408157491281803 14.537348516077298 11.230841675296046 1 0 0
773 258 1 0.5897 -6.551239525649548 12.82011444679979 10.717603196793913 1 0 0
728 243 1 0.5897 -3.1464192132336954 12.05536938692612 12.249954304984499 0 0 0
829 277 2 -1.1794 -6.9259007074092125 12.929172875961761 14.229021943977873 1 0 0
1005 335 1 0.5897 -4.220334510787097 16.040336941294115 10.34788425525744 1 0 0
831 277 1 0.5897 -7.541338009559863 12.3011305970358 13.850762096431977 1 0 0
925 309 2 -1.1794 -5.260468157491639 15.855354654316919 14.415322990884846 1 0 0
908 303 1 0.5897 -5.973574303054516 15.115088203709945 17.346530564593312 0 0 0
807 269 1 0.5897 -4.606437497572554 11.201939282295209 16.406477620380056 1 0 0
499 167 2 -1.1794 -8.892727575717295 16.00427100352902 19.262544161432224 1 0 -1
930 310 1 0.5897 -7.2946495957936826 15.82132112380064 14.619980630683527 1 0 0
781 261 2 -1.1794 -7.303427368771212 13.970892039694599 17.03258843071591 1 0 0
782 261 1 0.5897 -7.174201884955101 13.183182862806705 17.56090927824033 1 0 0
907 303 2 -1.1794 -5.384519972093681 15.71213007804662 17.807907526860596 0 0 0
926 309 1 0.5897 -4.785638273847912 15.060515154413737 14.658363915683926 1 0 0
830 277 1 0.5897 -7.381807301452196 13.281315164703363 14.993468542830438 1 0 0
909 303 1 0.5897 -4.572010011469739 15.685770016272018 17.302578647524648 0 0 0
927 309 1 0.5897 -5.032765381885918 16.488590030710732 15.096109259415261 1 0 0
806 269 1 0.5897 -5.578787934866613 11.541265140888397 15.296782658980193 1 0 0
769 257 2 -1.1794 -7.39903566505931 12.140893728279025 19.230385919923606 1 0 0
501 167 1 0.5897 -8.473099367866672 16.60319256629574 18.644870214967785 1 0 -1
679 227 2 -1.1794 -3.8182953243756774 13.531322260667375 15.032815672241417 0 0 0
783 261 1 0.5897 -8.229482409164664 14.18566252440949 17.14446693584772 1 0 0
437 146 1 0.5897 -2.6782771441400817 19.63209367070803 0.2686638815320719 1 0 0
391 131 2 -1.1794 -0.49763823638568727 19.32821307295901 3.155177101596152 0 0 0
458 153 1 0.5897 -2.7493768147788753 17.009974789416525 1.5466485136948476 1 0 0
392 131 1 0.5897 -0.020382328513011583 18.899803271658712 3.865791061986113 0 0 0
449 150 1 0.5897 -3.103293614714757 20.73251367943824 1.9235633253211817 1 0 0
481 161 2 -1.1794 -0.6983861420117661 22.03045041383875 1.5978206740697838 1 0 0
393 131 1 0.5897 -0.5135223956993817 20.253397897980484 3.40031957595914 0 0 0
448 150 2 -1.1794 -3.150791074974033 21.342911667726696 2.659386674653835 1 0 0
483 161 1 0.5897 -1.539398874221828 21.90141069791219 2.0363178117769274 1 0 0
459 153 1 0.5897 -1.9754524689918056 18.126391104722565 2.2150446857342776 1 0 0
938 313 1 0.5897 -0.6516148224110836 20.492519591695206 0.6829949532893518 1 0 1
457 153 2 -1.1794 -2.7836063752238576 17.61819163731107 2.285007422795574 1 0 0
495 165 1 0.5897 -3.1217408776303905 20.539216554936523 4.263661423657806 1 0 0
355 119 2 -1.1794 0.663898560855448 17.65614079925254 0.4000385916824152 0 0 0
937 313 2 -1.1794 -0.9115441703384284 19.82246874494374 0.050724769716038315 1 0 1
939 313 1 0.5897 -0.24114332819941708 19.143936875122797 0.1308261021114295 1 0 1
460 154 2 -1.1794 -4.402930703166682 17.49297485344242 7.052686577931913 1 0 0
494 165 1 0.5897 -3.487524939983216 20.609088312103395 5.731057076685393 1 0 0
471 157 1 0.5897 -2.6390970996506993 18.075710679176247 6.836743379139321 1 0 0
470 157 1 0.5897 -1.9744960626107964 18.90734462675004 5.760286849664755 1 0 0
445 149 2 -1.1794 -3.9189064699907457 21.23577425409639 7.256413917899783 1 0 0
446 149 1 0.5897 -3.7702351339758207 20.769387611544467 8.079009171620415 1 0 0
433 145 2 -1.1794 -3.625037048471302 19.77049128185233 9.4285215701749 1 0 0
469 157 2 -1.1794 -1.7864768385969398 18.265793154500933 6.445402357129284 1 0 0
447 149 1 0.5897 -4.825578662172665 21.537550465490156 7.312108136980143 1 0 0
435 145 1 0.5897 -4.568742094115041 19.612952921868505 9.399402709479663 1 0 0
493 165 2 -1.1794 -3.472680152911191 20.013064203484547 4.982197807176705 1 0 0
461 154 1 0.5897 -4.890148858880439 18.261480321105857 6.755547487933458 1 0 0
860 287 1 0.5897 -2.5495448280513413 18.338355800599075 9.430960146831108 0 0 0
859 287 2 -1.1794 -2.003566896183011 17.552138956652428 9.438279742533283 0 0 0
345 115 1 0.5897 -0.7467171492015909 22.452236553508953 4.867952984666128 0 0 0
343 115 2 -1.1794 -0.21887445247155402 21.656874113849213 4.796827946545694 0 0 0
344 115 1 0.5897 -0.3545417276059917 21.203532144999997 5.628918613730317 0 0 0
68 23 1 0.5897 -2.5131622518937693 22.339495724180665 7.639513970352728 0 -1 0
1004 335 1 0.5897 -4.674709522793668 16.91526531790018 9.198907332539633 1 0 0
985 329 2 -1.1794 -3.5209822753996094 21.923753571208195 11.016339905877938 1 0 0
954 318 1 0.5897 -5.490413337302668 21.67169268813447 11.78395109540818 1 0 0
895 299 2 -1.1794 -3.702460817640156 19.326330097926807 13.035069443128942 0 0 0
986 329 1 0.5897 -3.9575597219806493 22.488486746832685 10.37854252594851 1 0 0
998 333 1 0.5897 -6.4796234446608665 20.63574133149522 13.826474598133338 1 0 0
896 299 1 0.5897 -4.584113506761101 18.99112713542121 12.871935775605278 0 0 0
961 321 2 -1.1794 -5.769404073248706 17.695810559115365 12.552145311125356 1 0 0
963 321 1 0.5897 -5.600394421639683 17.340232839099528 11.679642580435587 1 0 0
952 318 2 -1.1794 -6.3972428579727065 21.373517682607968 11.854634348279523 1 0 0
987 329 1 0.5897 -2.9644374372750284 22.517060157512887 11.520881449568657 1 0 0
897 299 1 0.5897 -3.2669462735065835 18.62810157267475 13.524060722587526 0 0 0
434 145 1 0.5897 -3.522346103655271 20.501030657212404 10.038488233185964 1 0 0
848 283 1 0.5897 -3.4689415208832513 20.771239158977032 14.188336199398577 0 0 0
962 321 1 0.5897 -5.604009329684979 16.963438975080805 13.145942608201175 1 0 0
941 314 1 0.5897 -6.362416670697042 20.5337404641134 10.262693966242082 1 0 0
964 322 2 -1.1794 -8.185604132988521 17.559687101799007 17.183517050788524 1 0 0
975 325 1 0.5897 -4.7035223894462375 18.333547458772607 16.62824401020673 1 0 0
997 333 2 -1.1794 -6.875549806957258 20.290449839328247 14.626655810101717 1 0 0
974 325 1 0.5897 -6.133252248262316 17.835929579085608 16.61194025280064 1 0 0
973 325 2 -1.1794 -5.50537556397544 18.351547109267052 16.105762636463258 1 0 0
949 317 2 -1.1794 -7.620666070148689 21.17244024150053 17.199618673241133 1 0 0
950 317 1 0.5897 -7.429729649198124 20.700080220941352 16.38926736540051 1 0 0
951 317 1 0.5897 -7.424177064817545 20.54486884412656 17.895226387924176 1 0 0
573 191 1 0.5897 -5.000715968448936 22.15684008061939 18.108692202830294 0 -1 0
999 333 1 0.5897 -6.22149419280627 19.685277260243033 14.976276876404892 1 0 0
965 322 1 0.5897 -8.28771496150759 16.960709565406283 16.443860718153868 1 0 0
572 191 1 0.5897 -6.400824882680496 22.362528726770492 17.570776285605994 0 -1 0
356 119 1 0.5897 -6.024339946742414 16.888468753059556 19.11065521932349 0 0 -1
6 2 1 0.5897 3.966230232960145 1.3310764639489334 4.309118087345361 0 0 0
54 18 1 0.5897 3.2011750890200625 3.399878181513349 2.778098761246621 0 0 0
528 176 1 0.5897 4.019191965760366 2.0751464134129587 0.6684099499321143 0 0 1
47 16 1 0.5897 1.9821444257848668 5.136475645000026 1.2656205871363813 0 0 0
52 18 2 -1.1794 3.7350638926959014 2.9559104049241998 3.4369921268546206 0 0 0
32 11 1 0.5897 1.1258026350982124 1.3247462343170766 3.3257691399837377 0 0 0
48 16 1 0.5897 2.139383811801614 5.237965620524678 2.7679557743657215 0 0 0
46 16 2 -1.1794 1.830585532935518 4.651789761125649 2.0770512989257535 0 0 0
31 11 2 -1.1794 1.067276665350236 1.0327154526715652 2.416077559001899 0 0 0
78 26 1 0.5897 0.49936193500106274 2.652218653163564 4.443127804557165 0 0 0
70 24 2 -1.1794 3.715460974764494 0.468511591157317 1.7399294222451203 0 0 0
71 24 1 0.5897 2.927606380072022 0.4981297254111846 2.282737132090132 0 0 0
5 2 1 0.5897 3.5456880025630273 -0.07587340930484579 4.677641514624528 0 0 0
53 18 1 0.5897 4.521246560526042 2.682528318821028 2.9643806743018954 0 0 0
527 176 1 0.5897 2.839238172511343 2.943724543661801 0.2873246814796855 0 0 1
526 176 2 -1.1794 3.7160242619256225 2.6892979653268445 -0.000324415202716255 0 0 1
18 6 1 0.5897 4.994867570842652 4.119904127197015 -0.03048285231455357 0 0 0
522 174 1 0.5897 2.2053814967183136 5.400024611595974 8.999704713605531 0 0 0
44 15 1 0.5897 0.12364500162499237 5.159584935087648 8.083437621612521 0 0 0
59 20 1 0.5897 1.9317840969804223 3.444367985043479 5.5779028708622835 0 0 0
34 12 2 -1.1794 0.192780269499905 1.0685517380357052 7.164676831355044 0 0 0
35 12 1 0.5897 0.27434589361828277 1.8160287522414842 7.757058442553541 0 0 0
60 20 1 0.5897 3.057536839362818 3.522018505037607 6.587194919713592 0 0 0
45 15 1 0.5897 0.9106914016561483 4.459077229791746 6.996350191783155 0 0 0
77 26 1 0.5897 0.5159203786730879 1.6527952948600415 5.580238369330047 0 0 0
43 15 2 -1.1794 0.041076981183625794 4.804256652285148 7.198448310953005 0 0 0
58 20 2 -1.1794 2.4988214823087134 4.066977697259235 6.032986239112743 0 0 0
36 12 1 0.5897 -0.5888453354626373 0.6063985120340785 7.467580308008922 0 0 0
402 134 1 0.5897 1.5532233864057057 0.03230243794967258 7.845133113314306 0 1 0
76 26 2 -1.1794 1.0731687797542833 2.041700062185825 4.906058774896627 0 0 0
24 8 1 0.5897 0.8204468577710156 3.4160092276473097 9.570155693586562 0 0 0
401 134 1 0.5897 2.563995230653042 0.3871828672705747 8.914925266956935 0 1 0
22 8 2 -1.1794 0.11102949707872423 2.773432790824363 9.558739153091027 0 0 0
520 174 2 -1.1794 2.353511590348239 4.629205970135856 9.547635221155208 0 0 0
551 184 1 0.5897 -1.1117323534138919 5.4617646467135055 12.705329814319258 0 0 0
536 179 1 0.5897 -2.403932807491678 1.260975987727637 13.196771959934155 0 0 0
574 192 2 -1.1794 0.44439492502427314 0.5701344289042545 11.352531092986565 0 0 0
558 186 1 0.5897 -0.13550583480574385 3.7056364821036127 12.629925568624678 0 0 0
552 184 1 0.5897 -2.3469087044479027 4.7381871733593774 12.212532884124112 0 0 0
557 186 1 0.5897 0.358141095163397 2.6160481631896957 13.55793208887215 0 0 0
535 179 2 -1.1794 -2.2692833467560316 0.6761502359432637 12.451033508507095 0 0 0
537 179 1 0.5897 -2.2909086274359627 1.2525394067057336 11.68708362012807 0 0 0
556 186 2 -1.1794 0.6626295556758803 3.342036041677054 13.013352885972065 0 0 0
576 192 1 0.5897 -0.15912318212902843 0.5905978104525345 12.095221136161857 0 0 0
550 184 2 -1.1794 -1.503373032756735 5.082182836983224 11.91869548457737 0 0 0
23 8 1 0.5897 0.2814844552368063 2.214225437378297 10.316729900453561 0 0 0
525 175 1 0.5897 -1.6624243646273609 2.506481711067834 9.988158328195242 0 0 0
575 192 1 0.5897 1.1877270426215958 0.052248042767101266 11.6615593934011 0 0 0
521 174 1 0.5897 2.2686830265108497 4.952478937761265 10.444614999476178 0 0 0
508 170 2 -1.1794 0.5764516423380117 0.9286270984968046 14.296779770433906 0 0 0
539 180 1 0.5897 -3.254783310213104 1.6966261189703389 17.76049708865011 0 0 0
547 183 2 -1.1794 -3.760447712778081 4.718059142933212 17.15127421044698 0 0 0
563 188 1 0.5897 -1.0766882432898486 4.718112147096626 15.432028972169707 0 0 0
564 188 1 0.5897 -2.081732140701792 4.377424855008285 16.511751263585726 0 0 0
562 188 2 -1.1794 -1.2083652541067975 4.1511405251855304 16.19198061904803 0 0 0
538 180 2 -1.1794 -3.510662025029176 1.2953932117365705 16.929949642320228 0 0 0
581 194 1 0.5897 -3.004888826011898 1.9011528295515938 15.301823532238402 0 0 0
905 302 1 0.5897 -2.1766032128926156 0.002585373477863223 17.46107264779726 0 1 0
582 194 1 0.5897 -1.901800569648361 2.8629542309506513 14.914223426143185 0 0 0
540 180 1 0.5897 -4.385634669809857 0.9431547529674233 17.09303590072886 0 0 0
580 194 2 -1.1794 -2.582796626454275 2.30248132868529 14.54217168651178 0 0 0
546 182 1 0.5897 -0.05699605770052507 2.917993483509942 16.545613373191227 0 0 0
16 6 2 -1.1794 -1.0645382395058016 4.758261641222576 19.24468501659307 0 0 -1
510 170 1 0.5897 0.40776801298279164 1.3133815820744954 15.156880020888043 0 0 0
548 183 1 0.5897 -3.724907796654419 5.412959536283839 16.493869362893587 0 0 0
12 4 1 0.5897 1.449866872994039 6.320502761560218 4.324332304638335 0 0 0
220 74 2 -1.1794 3.8827806933251967 10.838479706598044 3.412096604744946 0 0 0
240 80 1 0.5897 3.1377524316238397 7.385143006661541 1.0193450640570052 0 0 0
199 67 2 -1.1794 1.2406830260860655 8.8313382106263 2.5508988380816766 0 0 0
238 80 2 -1.1794 3.7312748209440656 7.927610055056263 1.5387359338216535 0 0 0
245 82 1 0.5897 1.2508183635495769 9.547493695737163 4.083907610697628 0 0 0
239 80 1 0.5897 3.8316305458330504 8.730734529089707 1.0276328157136891 0 0 0
201 67 1 0.5897 2.1629115589779335 8.616775037182254 2.410620622901812 0 0 0
10 4 2 -1.1794 2.4002932169513755 6.216068677451587 4.279428653585163 0 0 0
221 74 1 0.5897 4.670036827062053 10.830283169444495 2.8676727909900555 0 0 0
174 58 1 0.5897 3.9429956335896534 8.885125037235207 3.8829553061387565 0 0 0
224 75 1 0.5897 0.19104879927798102 11.181507930255128 3.85511201329809 0 0 0
189 63 1 0.5897 1.9283840272697708 10.5137238002193 -0.03717704679237241 0 0 0
200 67 1 0.5897 0.7811230933544406 7.998906375800919 2.4404834566847646 0 0 0
172 58 2 -1.1794 4.17662194303607 8.305094420334129 4.607730768769053 0 0 0
694 232 2 -1.1794 3.7385744571563464 10.314157396053616 0.11687611370601658 0 0 1
696 232 1 0.5897 4.227950915971271 11.118960613124068 0.28755214614665037 0 0 1
173 58 1 0.5897 3.5634892693400753 7.573405859711118 4.536821639549075 0 0 0
29 10 1 0.5897 4.997238993282826 6.729121464996703 2.2922438029812318 0 0 0
82 28 2 -1.1794 2.275564845975933 6.354898204389315 -0.010883632781230237 0 0 0
188 63 1 0.5897 1.076703835716712 9.852887604851864 1.0257926212557624 0 0 0
191 64 1 0.5897 0.5280561997121582 9.647212460208651 8.679656861609383 0 0 0
11 4 1 0.5897 2.6198712406831017 5.685403549769196 5.045260115681569 0 0 0
8 3 1 0.5897 -0.3202316825760727 5.809560152094559 5.744454729691119 0 0 0
202 68 2 -1.1794 0.4464442307339289 8.625635225774952 7.186824601874998 0 0 0
203 68 1 0.5897 -0.35676164076030403 8.295905135825961 7.589816621740237 0 0 0
64 22 2 -1.1794 2.4079124528530453 7.042277870529642 8.063788865977518 0 0 0
204 68 1 0.5897 1.1287859152566382 8.02393720666661 7.484555179084463 0 0 0
246 82 1 0.5897 1.0513437533358037 9.261942198726631 5.557202061917122 0 0 0
244 82 2 -1.1794 1.0947421053219353 9.978641852913295 4.924133483231515 0 0 0
65 22 1 0.5897 2.7035728656054925 7.5214411580436265 8.837918438192766 0 0 0
588 196 1 0.5897 -0.9132453038836781 6.887493081730316 9.086886440678429 0 0 0
66 22 1 0.5897 3.199797037805399 6.920397081858175 7.54005084408746 0 0 0
190 64 2 -1.1794 0.6533287285741669 10.03655113705216 9.545102161648177 0 0 0
586 196 2 -1.1794 -0.2708146054163265 6.342871483449084 9.541787194822591 0 0 0
192 64 1 0.5897 1.1762866518475512 10.821507232578812 9.381758903609608 0 0 0
725 242 1 0.5897 1.1820873868628734 11.137154778237417 13.730453579975006 0 0 0
744 248 1 0.5897 0.5224186329677827 7.460096237773442 10.696217790781098 0 0 0
705 235 1 0.5897 -1.9622421667916523 8.902148230901615 13.205166311623447 0 0 0
742 248 2 -1.1794 0.7989209984026839 8.006751702582319 11.431754505399992 0 0 0
724 242 2 -1.1794 0.7394177906403261 10.651759315143403 13.034221119475088 0 0 0
743 248 1 0.5897 0.8785994644772801 8.885669732382679 11.060953834229727 0 0 0
703 235 2 -1.1794 -1.7872943509560484 8.639733014735494 12.301396597263837 0 0 0
704 235 1 0.5897 -0.861829646060051 8.39537353800293 12.297348583574884 0 0 0
678 226 1 0.5897 0.502266362165182 9.017409942847198 14.132090455022212 0 0 0
514 172 2 -1.1794 -1.0291183750834172 6.035201854538922 14.308386177975484 0 0 0
692 231 1 0.5897 -1.5420438700378183 10.308261222789962 9.825099041666748 0 0 0
750 250 1 0.5897 -2.6541991445954363 10.558699421952435 14.179189367433036 0 0 0
587 196 1 0.5897 -0.7739323306064407 5.896294808037983 10.222763962521457 0 0 0
516 172 1 0.5897 -0.3510096763273465 6.701983890165191 14.417446917499346 0 0 0
515 172 1 0.5897 -1.8531343561433378 6.516494676789097 14.38316335062287 0 0 0
707 236 1 0.5897 -3.8587516680385505 8.67126337160453 17.258285508965223 0 0 0