LAMMPS data file via write_data, version 30 Jul 2021, timestep = 39250000

1920 atoms
2 atom types
1280 bonds
1 bond types
640 angles
1 angle types

0.01730202751967269 24.712698972467983 xlo xhi
0.053349597451983755 24.67665140252749 ylo yhi
0.032752010548540156 22.777247989458402 zlo zhi

Masses

1 1.008
2 15.999

Pair Coeffs # lj/cut/tip4p/long/omp

1 0 0
2 0.21084 3.1668

Bond Coeffs # harmonic/omp

1 450 0.9572

Angle Coeffs # harmonic/omp

1 55 104.52

Atoms # full

1 1 2 -1.1794 4.592023861876873 1.47981587559274 4.241027565631589 0 0 0
2 1 1 0.5897 4.7060292346715675 2.2642182891751363 4.777622205103095 0 0 0
3 1 1 0.5897 5.3070218665789515 1.517591369531299 3.6057327759259694 0 0 0
4 2 2 -1.1794 3.0307003633639145 1.4239402248313364 1.9184314699904734 0 0 0
5 2 1 0.5897 3.367797709322961 1.4215636556196785 2.8143448778100346 0 0 0
6 2 1 0.5897 2.0810185177714704 1.4878113772354025 2.019547672819327 0 0 0
10 4 2 -1.1794 3.3010258554950633 4.4476008476590945 3.4654754409573765 0 0 0
11 4 1 0.5897 2.9091176104483703 5.211714088469595 3.8882549691718427 0 0 0
12 4 1 0.5897 2.799209968816173 4.336344730119909 2.6579565115949872 0 0 0
13 5 2 -1.1794 1.4781275742534543 3.0494620609099368 4.889898657121512 0 0 0
14 5 1 0.5897 2.233749559554509 3.3516995611774894 4.385997807002525 0 0 0
15 5 1 0.5897 1.556379166574761 2.0954975900349795 4.890897738176336 0 0 0
22 8 2 -1.1794 1.6257128461091235 4.521368439509903 1.2807281858886117 0 0 0
24 8 1 0.5897 1.5784497758319294 5.299686942128659 0.7255627267739782 0 0 0
23 8 1 0.5897 0.8994731718242545 4.621121978571897 1.8962535771846347 0 0 0
20 7 1 0.5897 3.9270616185955487 2.951271150128393 1.1351184240356011 0 0 0
9 3 1 0.5897 5.053637817348105 4.644552504453858 3.4712144741137165 0 0 0
19 7 2 -1.1794 4.717192588737948 3.3522085297629727 0.772968111552554 0 0 0
21 7 1 0.5897 5.437077706137566 2.928951587162485 1.2407704601167535 0 0 0
27 9 1 0.5897 4.6887238878347475 5.155441083850767 0.7104351066497301 0 0 0
7 3 2 -1.1794 6.007404650850586 4.720322487726621 3.4431808682713188 0 0 0
98 33 1 0.5897 0.38217160573752607 5.567368921565687 3.787148730441792 1 0 0
16 6 2 -1.1794 0.28670025514602054 1.6310544904899418 2.0745333468126708 0 0 0
28 10 2 -1.1794 1.749986232635822 0.20223236140393094 4.9767636378463 0 0 0
387 129 1 0.5897 4.202713611577383 0.29293960270661445 1.1807443898268184 0 1 0
99 33 1 0.5897 0.3972642480784405 4.0551477605057835 3.8557532707226394 1 0 0
25 9 2 -1.1794 4.723998428431041 6.108563862701624 0.6298917159569156 0 0 0
47 16 1 0.5897 6.133099549665822 0.8970135428798754 1.620193620011117 0 0 0
150 50 1 0.5897 1.7135266969689191 6.16708449315765 5.584843205394411 0 0 0
8 3 1 0.5897 6.205244447410913 5.469515217106391 4.005136479355723 0 0 0
46 16 2 -1.1794 6.464961884527267 1.611462476231539 2.1639324694437794 0 0 0
31 11 2 -1.1794 10.71278177837571 1.4316932989691327 4.359025859155548 0 0 0
32 11 1 0.5897 10.749773601498493 2.206633139832314 4.919668775188239 0 0 0
34 12 2 -1.1794 9.161279389614073 1.6042423410541302 2.0353578379659463 0 0 0
36 12 1 0.5897 9.597548778283088 2.2993242035976045 1.5426656855164114 0 0 0
39 13 1 0.5897 11.210449806415252 4.840237188781032 3.6755567929545228 0 0 0
40 14 2 -1.1794 9.470611910979027 4.8049835292855745 3.7006653023156364 0 0 0
41 14 1 0.5897 9.128664232566896 4.758519306821117 2.807796647857538 0 0 0
42 14 1 0.5897 9.089989014092176 4.04639207133952 4.143238521462761 0 0 0
43 15 2 -1.1794 7.758695624722299 3.0219242293181257 4.9282693991270135 0 0 0
45 15 1 0.5897 7.097298952780928 3.4257649206608725 4.366396506532504 0 0 0
48 16 1 0.5897 7.4173030181582975 1.5356744030497584 2.104715885668937 0 0 0
49 17 2 -1.1794 10.82351058425642 3.3488875609806157 0.7927443126333191 0 0 0
52 18 2 -1.1794 7.8741047432883535 4.93099401105019 1.4461820896772668 0 0 0
53 18 1 0.5897 7.74677223016918 4.164434142849539 0.8872550635240938 0 0 0
54 18 1 0.5897 7.15750190095929 4.888092089049849 2.079339298086044 0 0 0
35 12 1 0.5897 9.655511721524187 1.5429325220239856 2.8528283494768876 0 0 0
33 11 1 0.5897 10.629152397486534 0.6983868873612401 4.968532004958951 0 0 0
59 20 1 0.5897 7.704379709525989 1.2121058341363473 5.053356020187628 0 0 0
50 17 1 0.5897 11.456447168128005 2.9222582738838154 1.3703370792251663 0 0 0
56 19 1 0.5897 10.955815291282235 5.17083629082923 0.6139318555212047 0 0 0
37 13 2 -1.1794 12.14328606638027 4.628368387147202 3.6420207191535834 0 0 0
78 26 1 0.5897 12.156741510340757 1.6246334381797136 2.9611224520058035 0 0 0
77 26 1 0.5897 12.122690660042295 0.964846084702208 1.5989292359697442 0 0 0
58 20 2 -1.1794 7.563751551491891 0.2669020661963577 5.108024969396326 0 0 0
416 139 1 0.5897 10.104776727993288 0.20734297232860352 1.1134048042254383 0 1 0
55 19 2 -1.1794 10.943500514462913 6.125461339837582 0.5452895943355607 0 0 0
180 60 1 0.5897 8.295592329894312 6.028145353500165 4.712902937013828 0 0 0
867 289 1 0.5897 4.651683687842238 0.28222385820491735 5.744040746608026 0 1 0
629 210 1 0.5897 2.184832670972769 5.87596986671111 10.17825235174099 0 0 0
494 165 1 0.5897 1.3975112783098087 1.9421485015045143 10.608696023578448 0 0 0
504 168 1 0.5897 1.575385923870745 4.093917359541099 6.320256268145982 0 0 0
501 167 1 0.5897 4.60460195030668 4.373257179556072 6.346812401557027 0 0 0
499 167 2 -1.1794 4.632308516416532 3.4164926513317946 6.349300421525592 0 0 0
483 161 1 0.5897 4.561250127862329 2.3375501069206033 10.543153225842861 0 0 0
492 164 1 0.5897 2.7340831394282246 3.9423460801990005 9.585722822662394 0 0 0
493 165 2 -1.1794 1.528641476739331 2.882896983235347 10.490492160666003 0 0 0
491 164 1 0.5897 2.7103045413440854 4.769056207904194 8.317655840313497 0 0 0
485 162 1 0.5897 3.2352449119146196 1.6786243486062928 8.585553958429552 0 0 0
481 161 2 -1.1794 4.440160955020467 1.6049344155879506 9.939128673061612 0 0 0
482 161 1 0.5897 5.1371897659476184 1.710026435534883 9.291550136370882 0 0 0
502 168 2 -1.1794 1.6498669714571033 4.826987521496316 6.931231991970591 0 0 0
500 167 1 0.5897 3.856974130354876 3.1552510142319745 6.846127581746025 0 0 0
490 164 2 -1.1794 3.1809454841097047 4.664828520986599 9.144655105327768 0 0 0
503 168 1 0.5897 0.8467303543651146 4.789107046044805 7.450625579540654 0 0 0
498 166 1 0.5897 1.0348755271787382 1.7436588123924948 7.6848796265818695 0 0 0
484 162 2 -1.1794 2.840432293780118 1.733887828520693 7.7152869434138704 0 0 0
489 163 1 0.5897 5.010319717798691 4.644480762578204 9.293982272784776 0 0 0
486 162 1 0.5897 3.2229718318901512 1.0020494682165948 7.231254209794991 0 0 0
578 193 1 0.5897 0.3018775062241767 3.921288998891258 9.565774464071222 1 0 0
527 176 1 0.5897 5.829280934108337 0.924014636942092 7.40888869574593 0 0 0
579 193 1 0.5897 0.25575232985348273 5.431746242193768 9.655980326417916 1 0 0
528 176 1 0.5897 5.826254726413436 2.436065053243862 7.335133327613749 0 0 0
505 169 2 -1.1794 4.689772461917797 6.064471699480804 6.3264595256032905 0 0 0
496 166 2 -1.1794 0.08338159410112772 1.6811799843022521 7.768270590907887 0 0 0
508 170 2 -1.1794 1.2667423799600948 0.1771651278797189 10.710990225208027 0 0 0
1347 449 1 0.5897 4.482016833506741 0.23828668170769 11.319561864104788 0 1 0
487 163 2 -1.1794 5.95179396178629 4.813840500897331 9.327757424634243 0 0 0
495 165 1 0.5897 1.4082369953336245 3.2536784156876477 11.364743652929366 0 0 0
514 172 2 -1.1794 9.019687881195638 1.8561613445971534 7.823717549475819 0 0 0
513 171 1 0.5897 11.551626575911186 1.648398309504799 9.370290928880285 0 0 0
512 171 1 0.5897 10.038952125628372 1.6783056646349845 9.318027588898575 0 0 0
44 15 1 0.5897 7.696521295739709 3.5009372623752344 5.754683028151822 0 0 0
488 163 1 0.5897 6.320527521668854 4.036673134160878 9.747578664165596 0 0 0
659 220 1 0.5897 6.910490137489005 6.20125652990126 10.32486526000561 0 0 0
521 174 1 0.5897 8.881948489759358 5.3671218230678654 9.912633164000903 0 0 0
558 186 1 0.5897 12.05569484183417 2.2835030985512805 7.2719198979177335 0 0 0
516 172 1 0.5897 9.324689543489205 1.0402630514143973 7.426876564863868 0 0 0
511 171 2 -1.1794 10.775664070009963 1.6926546272764678 9.929006053197146 0 0 0
533 178 1 0.5897 7.5643790034413865 5.370287634591458 6.619524004108997 0 0 0
1010 337 1 0.5897 10.808450472976984 2.819952570832729 11.310372797074164 0 0 0
524 175 1 0.5897 8.20906953950656 3.3454641886340735 10.267968067740636 0 0 0
534 178 1 0.5897 6.98782752864496 4.687203578952368 7.841396299921599 0 0 0
532 178 2 -1.1794 7.664156234154722 4.593937814910737 7.170473311507441 0 0 0
529 177 2 -1.1794 10.908442756786439 3.304868169671492 6.366092206762851 0 0 0
525 175 1 0.5897 7.472837952106473 2.050989384366161 10.54012233023157 0 0 0
522 174 1 0.5897 8.928237447778583 4.609425079347013 8.602759885706394 0 0 0
523 175 2 -1.1794 7.413529731759236 2.997360692531548 10.67065189342 0 0 0
896 299 1 0.5897 11.198539853819337 0.0544887872902137 7.073098973899025 0 1 0
538 180 2 -1.1794 7.611345866781645 0.16685296813174497 10.6274179650527 0 0 0
515 172 1 0.5897 8.065989643907837 1.7754152089053885 7.835582172328982 0 0 0
520 174 2 -1.1794 9.343044461084684 4.658333343658872 9.464059243574557 0 0 0
530 177 1 0.5897 10.177849602165503 2.9303037549395365 6.858188684889302 0 0 0
535 179 2 -1.1794 10.660396395365632 6.0651717807497505 6.50411091800835 0 0 0
519 173 1 0.5897 11.090796319331133 4.671997103922672 9.299301225481821 0 0 0
1377 459 1 0.5897 10.913471670588166 0.2985713450894225 11.252665317161835 0 1 0
526 176 2 -1.1794 6.269246464877367 1.6996841450416942 7.756685526434483 0 0 0
531 177 1 0.5897 10.782212474595497 4.251362163929793 6.432352247068612 0 0 0
517 173 2 -1.1794 12.036327882034684 4.779243839396891 9.196024909223816 0 0 0
961 321 2 -1.1794 4.640126661381226 1.67577032535472 15.571238745826546 0 0 0
962 321 1 0.5897 5.29387108800839 1.5388401297883814 14.885581808560586 0 0 0
963 321 1 0.5897 4.761864274078974 0.9386463370981826 16.169616927231232 0 0 0
964 322 2 -1.1794 2.7856110519031905 1.5554549749474678 13.472225265245802 0 0 0
965 322 1 0.5897 3.1598740977568704 1.626666982927351 14.35037810789681 0 0 0
966 322 1 0.5897 1.8712322898958114 1.314025755352381 13.61994611692704 0 0 0
970 324 2 -1.1794 3.2864292253309766 4.7208879110020945 14.891843877541376 0 0 0
971 324 1 0.5897 4.24079808381755 4.6525876727313165 14.91853702931388 0 0 0
972 324 1 0.5897 2.976855247694375 3.93302934543692 15.338671859819984 0 0 0
973 325 2 -1.1794 1.705033238983557 2.9573504290377146 16.477386951304567 0 0 0
975 325 1 0.5897 1.0162461973772234 3.4259904770571534 16.00604019952342 0 0 0
982 328 2 -1.1794 1.3940337788268697 4.444933085836737 12.812767877713164 0 0 0
983 328 1 0.5897 1.402579738482037 5.181897832951198 12.201994371136848 0 0 0
984 328 1 0.5897 2.1454808131048955 4.598984689141066 13.385335998005973 0 0 0
980 327 1 0.5897 3.8019986724993924 2.852886572009245 12.365627802473849 0 0 0
981 327 1 0.5897 5.311223397770742 2.768236182723183 12.448589950876112 0 0 0
979 327 2 -1.1794 4.602385142368417 3.253205440229333 12.026019074428612 0 0 0
990 330 1 0.5897 1.5900238267806255 1.1730364820465018 16.446427708096778 0 0 0
986 329 1 0.5897 4.525967037461027 5.0256165423456265 12.11413619457065 0 0 0
1109 370 1 0.5897 0.8094081591526879 5.7775851566747365 15.878520500101688 0 0 0
967 323 2 -1.1794 6.005684175585282 4.782461818689837 15.093887901300821 0 0 0
1346 449 1 0.5897 3.841641267159501 0.23537428753007422 12.691407942709455 0 1 0
985 329 2 -1.1794 4.513199094584106 5.96928359074427 11.954434679977672 0 0 0
1008 336 1 0.5897 5.9234110622428915 0.8334876002111953 12.993075994036031 0 0 0
1110 370 1 0.5897 2.313032508535791 5.918606905809941 15.773438739770173 0 0 0
1058 353 1 0.5897 0.15427537433017127 4.442246496875789 14.162462733099058 1 0 0
988 330 2 -1.1794 1.545619361809776 0.21996899875339757 16.369860092876507 0 0 0
976 326 2 -1.1794 0.06147451969840618 1.3558243226927658 13.600348773528228 0 0 0
1460 487 1 0.5897 4.6968216205260545 2.929092355655506 17.03417343058092 0 0 0
1006 336 2 -1.1794 6.280827845261121 1.5839498560590326 13.467701466678664 0 0 0
968 323 1 0.5897 6.4370035577284535 5.576642279776517 15.409220468546923 0 0 0
969 323 1 0.5897 6.506227257029284 4.066257833614968 15.484670922281614 0 0 0
1015 339 2 -1.1794 10.773488357469867 6.056306160232232 12.093826420541196 0 0 0
1017 339 1 0.5897 10.800050887527803 5.09960374357168 12.08017995332183 0 0 0
991 331 2 -1.1794 10.723828247053488 1.5298016249411133 15.601695258374516 0 0 0
992 331 1 0.5897 11.479722680721762 1.478965862410472 15.016646882602455 0 0 0
993 331 1 0.5897 10.81589544630427 0.7720168683727563 16.179197665310113 0 0 0
994 332 2 -1.1794 9.010881795118085 1.5918028444419956 13.383194837171555 0 0 0
995 332 1 0.5897 9.43726152860098 2.3446791356453023 12.973829636285133 0 0 0
998 333 1 0.5897 11.239125440564594 4.629682534911749 15.023901927464223 0 0 0
1000 334 2 -1.1794 9.45774995024048 4.719146891271063 14.926742090009512 0 0 0
1001 334 1 0.5897 9.070865290480587 3.9814075133234903 15.398198931723513 0 0 0
1002 334 1 0.5897 8.958802811296222 4.771251436177584 14.111500168401102 0 0 0
1003 335 2 -1.1794 7.76291286676408 2.938831642708361 16.22488713358046 0 0 0
1004 335 1 0.5897 7.739570325757546 1.9971624064629714 16.394859772716345 0 0 0
1007 336 1 0.5897 7.23002229400291 1.480927803444903 13.399777359680455 0 0 0
1012 338 2 -1.1794 7.7391642437101185 4.7173543384857775 12.882009884184928 0 0 0
1014 338 1 0.5897 7.633953817616163 4.044159301434952 12.209714613911757 0 0 0
1011 337 1 0.5897 11.529012729968033 2.9642444346165484 12.634007695760959 0 0 0
1009 337 2 -1.1794 10.81294541619257 3.334240216737927 12.117692859302373 0 0 0
996 332 1 0.5897 9.428153876703782 1.5169792349994824 14.241436913516079 0 0 0
1013 338 1 0.5897 6.972757771972755 4.614936344340711 13.446254660393102 0 0 0
997 333 2 -1.1794 12.183215859877382 4.696664136497188 15.1667607920631 0 0 0
1139 380 1 0.5897 8.454409909997148 6.070030638636825 15.7631280623665 0 0 0
1376 459 1 0.5897 10.079067993234785 0.3437969446582081 12.515098697561259 0 1 0
1038 346 1 0.5897 12.04350554478333 0.937382296348038 13.132927277308482 0 0 0
1018 340 2 -1.1794 7.675833204376887 0.22806922556361206 16.55811026767968 0 0 0
1490 497 1 0.5897 10.833495825362087 2.7674151766025505 16.89948667691681 0 0 0
660 220 1 0.5897 7.718515242643274 5.999975875246999 11.58922248155066 0 0 0
974 325 1 0.5897 1.7801993818691912 3.418064479344825 17.313076800885767 0 0 0
1456 486 2 -1.1794 0.3102928152084458 1.5638341128193147 19.23305888037246 0 0 0
1538 513 1 0.5897 0.1835489057650111 3.8365380650508163 21.024956340923424 1 0 0
1454 485 1 0.5897 2.303055215240399 3.4055603938473715 21.410645261522923 0 0 0
1464 488 1 0.5897 1.0608301749771645 4.838108983001454 19.22351078322886 0 0 0
1443 481 1 0.5897 4.854084075568554 2.3090355314782323 22.03467880953483 0 0 0
1450 484 2 -1.1794 3.440890805715138 4.607986619417497 20.74984474523491 0 0 0
1469 490 1 0.5897 1.7439852000390113 1.0955068881102126 21.92911829812008 0 0 0
1442 481 1 0.5897 4.112193403879402 1.5338834366677276 20.966655670749233 0 0 0
1453 485 2 -1.1794 1.6039371713972332 2.9350557723372592 21.864602921706343 0 0 0
1444 482 2 -1.1794 3.0962736138529854 1.4447600153966542 19.341468033426345 0 0 0
1463 488 1 0.5897 1.6228623405986762 5.470322526384628 17.96795341253199 0 0 0
1452 484 1 0.5897 3.228635437911843 4.63830356390455 19.81692534644128 0 0 0
1441 481 2 -1.1794 4.96484103467582 1.6048994684361855 21.395804575704055 0 0 0
1451 484 1 0.5897 4.3975664051882735 4.6194348243945855 20.77878468599578 0 0 0
1445 482 1 0.5897 2.149266360068661 1.5704678034226565 19.281698252410003 0 0 0
1446 482 1 0.5897 3.467820986026844 2.198746530395765 18.88357361776042 0 0 0
1461 487 1 0.5897 5.44776988594017 2.8184390702917503 18.34408212082618 0 0 0
1459 487 2 -1.1794 4.755591260600856 3.3153861961871596 17.908024617225053 0 0 0
1462 488 2 -1.1794 1.7347431139848977 4.721650838442786 18.553784695565554 0 0 0
1466 489 1 0.5897 4.703696247237373 5.139498060738026 17.79215432096653 0 0 0
1539 513 1 0.5897 0.16914371674865286 5.346510662422901 21.13231137380548 1 0 0
1465 489 2 -1.1794 4.518769998901955 6.0781194639119756 17.823252213910038 0 0 0
1488 496 1 0.5897 6.101072324719918 0.9364742631090865 18.572680925213078 0 0 0
1487 496 1 0.5897 6.055923615317671 1.6866510632472456 19.886916810008273 0 0 0
386 129 1 0.5897 4.961736734533139 0.3356867455878994 22.616008300719216 0 1 -1
1590 530 1 0.5897 2.3090892645872314 6.07776596042945 21.441692257576108 0 0 0
1826 609 1 0.5897 4.100607382289753 0.25131889837939614 18.364150236035705 0 1 0
1468 490 2 -1.1794 1.7407131029497913 0.13893948041664794 21.895351130037326 0 0 0
1455 485 1 0.5897 1.5013817164940173 3.4002108777987647 22.694904519163355 0 0 0
1476 492 1 0.5897 9.56059724259238 0.8637408979552436 18.69070257712167 0 0 0
1005 335 1 0.5897 7.792264646442823 3.3388869815597895 17.094016172442643 0 0 0
1447 483 2 -1.1794 6.251779619080509 4.741445713722905 20.582560377482558 0 0 0
1856 619 1 0.5897 11.574603423049139 0.1079986332700719 18.261185368194333 0 1 0
1619 540 1 0.5897 7.93645424258505 6.016278451576906 22.743710932926327 0 0 0
1491 497 1 0.5897 10.241754183243652 2.7751070058893994 18.292986174867934 0 0 0
1482 494 1 0.5897 9.260417551990102 4.587562754988194 19.777912470731664 0 0 0
1471 491 2 -1.1794 11.029918222221855 1.778388678577231 21.3866260732446 0 0 0
1495 499 2 -1.1794 10.888557284070922 5.9745327549756375 17.948303600369634 0 0 0
1518 506 1 0.5897 12.232195413448283 1.6670412951409586 20.075088610806574 0 0 0
1494 498 1 0.5897 7.272828184953346 4.586068819069538 19.01350541902064 0 0 0
1498 500 2 -1.1794 7.916537617778425 0.3770669455320632 22.117004602515486 0 0 0
1517 506 1 0.5897 12.189258437560856 2.3016243825626654 18.701224717391383 0 0 0
1449 483 1 0.5897 6.644969031839002 4.003288292777978 21.048111033977122 0 0 0
1448 483 1 0.5897 6.6186682081273975 5.516381541894032 21.008083749160093 0 0 0
1492 498 2 -1.1794 8.002961623006911 4.516119652796373 18.39847381375087 0 0 0
1477 493 2 -1.1794 12.353938600947252 4.812736271776645 20.70153554114411 0 0 0
1475 492 1 0.5897 8.293904874692457 1.5793611672001078 19.10926475531479 0 0 0
1474 492 2 -1.1794 9.244816689153003 1.59825068394353 19.217006089214856 0 0 0
1485 495 1 0.5897 7.874329319813176 2.13954263143027 22.15096070921085 0 0 0
1484 495 1 0.5897 8.59950073274847 3.3433525343183375 21.588132485959896 0 0 0
1620 540 1 0.5897 8.5631747955308 5.937872429644331 21.36780088029446 0 0 0
1483 495 2 -1.1794 7.847212614599832 3.095996554283123 22.125821523430517 0 0 0
1489 497 2 -1.1794 10.878128869093091 3.2263514684770396 17.7383364592921 0 0 0
1496 499 1 0.5897 10.824199353639466 5.034981201612907 17.777192330455648 0 0 0
1486 496 2 -1.1794 6.555359575774951 1.6139458602577574 19.073552746196796 0 0 0
1481 494 1 0.5897 10.51823710569521 4.961494663485161 20.532857285145106 0 0 0
1493 498 1 0.5897 7.889647936481093 5.2592293796333545 17.80587423511976 0 0 0
1480 494 2 -1.1794 9.589234396327218 4.768227791940715 20.658557703876 0 0 0
1473 491 1 0.5897 10.362143513033377 1.6445167385078483 20.71401178846307 0 0 0
1472 491 1 0.5897 10.95416587548391 1.0125741221969888 21.955846308245313 0 0 0
51 17 1 0.5897 10.942944098040934 2.918464769697553 22.690624516772214 0 0 -1
121 41 2 -1.1794 4.542436578349929 7.768886195205972 4.090472440974398 0 0 0
122 41 1 0.5897 3.8069815792115334 7.666902479432439 3.4863607528462595 0 0 0
123 41 1 0.5897 5.311865452681819 7.827256064959122 3.5240705476587575 0 0 0
124 42 2 -1.1794 2.8707422940520018 7.69920043819173 1.8285344323075488 0 0 0
125 42 1 0.5897 3.3994649698633608 7.018224675862815 1.4126826284370053 0 0 0
126 42 1 0.5897 3.339897749562855 8.513006586771038 1.644699160631924 0 0 0
129 43 1 0.5897 5.162013595848426 10.653593890178835 3.350078557374995 0 0 0
130 44 2 -1.1794 3.3451881490564763 10.767000564502085 3.539241223383582 0 0 0
132 44 1 0.5897 2.884649245115597 10.02101913248076 3.9234502908128754 0 0 0
133 45 2 -1.1794 1.5931644188636425 9.215545125363132 4.986389034324025 0 0 0
135 45 1 0.5897 0.9174690062411728 9.6873435218006 4.499497513815649 0 0 0
137 46 1 0.5897 1.0982169541095412 7.686297183420683 1.9523062654966246 0 0 0
139 47 2 -1.1794 4.7357720719593965 9.60804393003774 0.8372577528379905 0 0 0
142 48 2 -1.1794 1.395258370653105 10.879702848874205 1.506126240973117 0 0 0
143 48 1 0.5897 2.1515862155407426 10.919415030735252 2.0914742512628157 0 0 0
144 48 1 0.5897 1.5638152306379056 11.555908033096582 0.8499443716206164 0 0 0
149 50 1 0.5897 1.7103946176923972 7.455498432167732 4.789971408070745 0 0 0
131 44 1 0.5897 3.0639198047540535 11.517809998016464 4.062108778332757 0 0 0
140 47 1 0.5897 4.821511375836885 10.55581436797368 0.7345275682138406 0 0 0
127 43 2 -1.1794 6.113823088327649 10.622841682667907 3.4465888468033548 0 0 0
218 73 1 0.5897 0.31101958150000225 10.890096963485034 2.8802808802393227 1 0 0
145 49 2 -1.1794 4.909723554886755 12.364370548065809 0.6889411614076797 0 0 0
136 46 2 -1.1794 0.15748721194448873 7.848863440026066 2.0215756673633596 0 0 0
621 207 1 0.5897 4.524253250123907 8.933466124208895 5.463067291564042 0 0 0
26 9 1 0.5897 5.455945869359293 6.369690432398865 1.1887302730461973 0 0 0
1574 525 1 0.5897 1.4560709410748034 9.472103969109465 0.16103238659958583 0 0 1
507 169 1 0.5897 4.672473627994036 6.553245285829328 5.503611725969669 0 0 0
270 90 1 0.5897 0.9437921342054053 12.153456635382508 4.669387388146683 0 0 0
148 50 2 -1.1794 1.755676567608466 6.504631905285681 4.690090684233615 0 0 0
168 56 1 0.5897 6.201094510288818 8.313019439217882 1.6925777805416136 0 0 0
128 43 1 0.5897 6.330251243165962 11.411732340400714 3.9436158214957597 0 0 0
197 66 1 0.5897 12.16338942915748 8.42937575995161 1.6980647396781685 0 0 0
166 56 2 -1.1794 6.474063702857859 7.571650348957155 2.2330211917937435 0 0 0
178 60 2 -1.1794 7.554314939441186 6.39806294162441 5.192372255697728 0 0 0
300 100 1 0.5897 8.275395515585236 12.127976041083473 4.36564654469402 0 0 0
151 51 2 -1.1794 10.95462402918701 7.684010757045296 4.304546758909241 0 0 0
152 51 1 0.5897 10.211627555926897 7.709315972080202 3.701586373190496 0 0 0
153 51 1 0.5897 10.7220429052016 7.010717005098786 4.943938061287235 0 0 0
154 52 2 -1.1794 9.174719809449288 7.6607855013004755 2.124115464226534 0 0 0
155 52 1 0.5897 9.564022589715513 8.39284500457644 1.645843251206038 0 0 0
156 52 1 0.5897 9.48821916637342 6.88102714274927 1.6659654813127933 0 0 0
158 53 1 0.5897 11.38488008479748 10.809633147432915 3.5993499087302485 0 0 0
160 54 2 -1.1794 9.45427013362454 10.91844168862218 3.718172515309916 0 0 0
161 54 1 0.5897 9.097248213950559 10.8694520205936 2.8313614609444753 0 0 0
162 54 1 0.5897 9.091507393421558 10.153931705914552 4.165535624912235 0 0 0
163 55 2 -1.1794 7.79651761545199 9.115836612172425 4.974226867310443 0 0 0
164 55 1 0.5897 7.180528037101859 9.59441772459198 4.419476370857175 0 0 0
167 56 1 0.5897 7.429772798850557 7.623126204372802 2.2459603113621185 0 0 0
169 57 2 -1.1794 10.757789306706831 9.410150419481159 0.8449787954171007 0 0 0
172 58 2 -1.1794 7.820959621051942 11.027622763133238 1.383861858787885 0 0 0
173 58 1 0.5897 7.768335688320883 10.257751392648114 0.8175133317501391 0 0 0
174 58 1 0.5897 7.101340631743902 10.917978500520228 2.005450422474571 0 0 0
179 60 1 0.5897 7.651222236398564 7.344877785835419 5.090765577777897 0 0 0
171 57 1 0.5897 10.704492927486651 10.361086904438546 0.7498364186713818 0 0 0
57 19 1 0.5897 11.670022634199656 6.415125501577774 1.0971024813156574 0 0 0
198 66 1 0.5897 12.141278776156453 7.601901657330918 2.965658837979277 0 0 0
157 53 2 -1.1794 12.328574933857723 10.822010245131272 3.758999717571803 0 0 0
175 59 2 -1.1794 10.942319239896195 12.111278100820739 0.8120429481978322 0 0 0
650 217 1 0.5897 11.1301967407469 8.981918485883575 5.6916159935546595 0 0 0
1739 580 1 0.5897 7.829856200483575 12.274277157602166 0.04894972937885031 0 0 1
134 45 1 0.5897 1.673697038227548 9.694895586071922 5.811019977434377 0 0 0
628 210 2 -1.1794 1.4966673425221786 6.231266044206921 10.74077041043421 0 0 0
506 169 1 0.5897 4.022681302598568 6.484639596675242 6.869302855319875 0 0 0
603 201 1 0.5897 3.9552723306135773 7.670104648663852 9.273711312693257 0 0 0
625 209 2 -1.1794 4.498546036931925 12.138677995287962 6.434818006735382 0 0 0
624 208 1 0.5897 1.7878448935321556 11.543181837893695 6.642624659868018 0 0 0
604 202 2 -1.1794 2.977651713877077 7.588942568625754 7.848581216320055 0 0 0
620 207 1 0.5897 5.310500074732518 8.892867540019267 6.756199660597752 0 0 0
619 207 2 -1.1794 4.625004010908015 9.382943870855888 6.30217459303211 0 0 0
623 208 1 0.5897 2.376412691345071 10.849711095792992 7.85285998789656 0 0 0
601 201 2 -1.1794 4.672674220330595 7.810668878765949 9.891629233284135 0 0 0
699 233 1 0.5897 0.37864790586006625 10.713967624232405 8.532116126464736 1 0 0
698 233 1 0.5897 0.39776412868459393 11.376859100401795 9.89308759132348 1 0 0
612 204 1 0.5897 3.0716784947304188 11.554637450755115 9.765786605864395 0 0 0
630 210 1 0.5897 1.5744122843570392 7.180424034453929 10.644701432775223 0 0 0
605 202 1 0.5897 3.2499803920516674 8.369020293521592 7.3653369014310925 0 0 0
602 201 1 0.5897 4.6328876105215 7.057472662623564 10.480986271663822 0 0 0
611 204 1 0.5897 4.357261529801205 10.925673046853529 9.272320805933726 0 0 0
610 204 2 -1.1794 3.409456325429112 10.793706723901508 9.29345169052694 0 0 0
606 202 1 0.5897 2.021307111118346 7.605878956774295 7.812319318054101 0 0 0
613 205 2 -1.1794 1.680865784044046 9.010308324505568 10.57921380866555 0 0 0
622 208 2 -1.1794 1.6633110887774303 10.787903929416553 7.217315555390971 0 0 0
626 209 1 0.5897 4.660521346226919 11.201881581224537 6.323686609878762 0 0 0
614 205 1 0.5897 2.424245251238469 9.32477186970752 10.064695060899515 0 0 0
615 205 1 0.5897 0.9267579602013202 9.480277802197131 10.223324180419265 0 0 0
648 216 1 0.5897 5.973283509321793 7.075445112186542 7.15274075497753 0 0 0
647 216 1 0.5897 5.88862254136598 7.701539108708894 8.528561436322212 0 0 0
607 203 2 -1.1794 6.161763024088307 10.980384622534675 9.239146769712857 0 0 0
616 206 2 -1.1794 0.21461789662500289 7.8236610160432 7.70567075357524 0 0 0
1101 367 1 0.5897 4.657204862871735 8.922217405031706 11.23357060209562 0 0 0
750 250 1 0.5897 1.5143931700799773 12.197786579372286 11.39186046224848 0 0 0
779 260 1 0.5897 8.569087018769814 12.230044405166408 10.214084411402581 0 0 0
653 218 1 0.5897 7.081467031501063 10.899317463775027 7.67826388530129 0 0 0
165 55 1 0.5897 7.771073387328356 9.575681358870227 5.813379841747708 0 0 0
646 216 2 -1.1794 6.3428555305486185 7.776668178419377 7.689326220273185 0 0 0
634 212 2 -1.1794 9.021055284299413 7.809135813115221 7.671508868758111 0 0 0
633 211 1 0.5897 10.565111625074469 7.074871162616534 10.633888184885588 0 0 0
635 212 1 0.5897 9.24312059103061 7.829434575583376 8.602413783223371 0 0 0
640 214 2 -1.1794 9.56894351274096 10.979443557881059 9.336608729511076 0 0 0
536 179 1 0.5897 11.369887570275585 6.462674938035604 7.008930527792537 0 0 0
657 219 1 0.5897 10.864501926884694 11.264968389114978 6.426127041544293 0 0 0
654 218 1 0.5897 8.594862981409012 10.900747501768851 7.7164061681266904 0 0 0
658 220 2 -1.1794 7.696365197622842 6.507139171767502 10.777698153092839 0 0 0
299 100 1 0.5897 7.64870169683663 12.188188023299263 5.742484245794621 0 0 0
649 217 2 -1.1794 10.93914840255241 9.415648803091932 6.523276711046408 0 0 0
643 215 2 -1.1794 7.798920339837349 9.288646540503523 10.564411854340017 0 0 0
652 218 2 -1.1794 7.852934708677664 10.887444149226308 7.111746941480076 0 0 0
655 219 2 -1.1794 10.707991398447595 12.205687383482543 6.5081468867928125 0 0 0
651 217 1 0.5897 10.166761954654087 8.960943512375664 6.859238239856555 0 0 0
645 215 1 0.5897 7.71099230863473 8.341725262153922 10.672961796296635 0 0 0
631 211 2 -1.1794 10.52606801406429 7.827576884229736 10.043855344727662 0 0 0
636 212 1 0.5897 8.067011642501651 7.883734260495948 7.650708562281522 0 0 0
537 179 1 0.5897 9.867572274069888 6.494898376074739 6.825002632619199 0 0 0
642 214 1 0.5897 9.151847153819858 10.213736794346964 9.731481710903273 0 0 0
609 203 1 0.5897 6.632066580646609 10.233006947410088 9.608525819082109 0 0 0
678 226 1 0.5897 11.98809840038821 8.383009763409914 7.5583147392857 0 0 0
637 213 2 -1.1794 12.242913247195414 10.67076683698446 9.32079003909957 0 0 0
641 214 1 0.5897 10.503846719568799 10.774288657136674 9.3445738780785 0 0 0
608 203 1 0.5897 6.659293304366851 11.744581394689073 9.530119197195535 0 0 0
632 211 1 0.5897 11.234813243747958 7.67890527657463 9.417896418641378 0 0 0
1178 393 1 0.5897 0.20969176770256906 11.502513151608252 15.194522026752322 1 0 0
1081 361 2 -1.1794 4.50945872461128 7.806378045375392 15.674349769386975 0 0 0
1082 361 1 0.5897 4.394335880906887 8.593695891674859 16.206420302804837 0 0 0
1083 361 1 0.5897 4.494609430313514 7.086382804595751 16.304920536164737 0 0 0
1084 362 2 -1.1794 2.9416610146321887 7.660562645561825 13.482892117162425 0 0 0
1085 362 1 0.5897 3.421390991232831 7.697912769197593 14.310388007177451 0 0 0
1086 362 1 0.5897 3.37168490235125 8.310066313820201 12.926610105423057 0 0 0
1089 363 1 0.5897 5.029114522017118 10.849983715409767 14.941395646386859 0 0 0
1090 364 2 -1.1794 3.247466388881156 10.892841850973683 14.991876009785033 0 0 0
1091 364 1 0.5897 2.6934620188997154 11.616165474923914 15.285263639460311 0 0 0
1092 364 1 0.5897 2.94802902486466 10.139524656687014 15.500861659801995 0 0 0
1095 365 1 0.5897 1.037222613946669 9.384892161652045 15.741232536476764 0 0 0
1097 366 1 0.5897 1.1409025470556935 7.873119098235554 13.40179454723765 0 0 0
1099 367 2 -1.1794 4.583468892988801 9.360863376377662 12.081177643302814 0 0 0
1102 368 2 -1.1794 1.6036011532253287 10.802305201963698 12.641289394620566 0 0 0
1104 368 1 0.5897 2.4098230988987663 10.72068336855542 13.150772883008903 0 0 0
1093 365 2 -1.1794 1.6098232082271515 9.065062967917049 16.438437000675513 0 0 0