LAMMPS (30 Jul 2021)
Processor partition = 0
  using 1 OpenMP thread(s) per MPI task
using multi-threaded neighbor list subroutines
variable        pid world 0 1
variable        phase world IceII IceIII

shell cd ${phase}
shell cd IceII
include Restart.lmp
echo both
log log.lammps
#include		in.partitions
include		in.temp
variable        temperature equal 136.18
variable	tempDamp equal 100.0
include		in.pressure
variable        pressure equal 11793.8
variable        pressureDamp equal 1000.0 # This is 1 ps
include		in.seed
variable        seed equal 745823

units		real
atom_style	full
box tilt large
read_restart	restart.lmp.${pid}
read_restart	restart.lmp.0
Reading restart file ...
  restart file = 30 Jul 2021, LAMMPS = 30 Jul 2021
  restoring atom style full from restart
  triclinic box = (-10.523660 -9.0333541 0.23199925) to (12.503660 12.023352 21.628000) with tilt (-9.2327643 1.8533232 2.4821395)
  4 by 4 by 4 MPI processor grid
  restoring pair style lj/cut/tip4p/long/omp from restart
  restoring bond style harmonic/omp from restart
  restoring angle style harmonic/omp from restart
  1296 atoms
  864 bonds
  432 angles
Finding 1-2 1-3 1-4 neighbors ...
  special bond factors lj:    0        0        0       
  special bond factors coul:  0        0        0       
     2 = max # of 1-2 neighbors
     1 = max # of 1-3 neighbors
     1 = max # of 1-4 neighbors
     2 = max # of special neighbors
  special bonds CPU = 0.004 seconds
  read_restart CPU = 0.011 seconds
include 	in.setup
variable	out_freq equal 1000
variable	out_freq2 equal 10000
variable	out_freq3 equal 1000

timestep	2.0

neigh_modify    delay 7 every 1

include		in.tip4p
# This is TIP4P/Ice

# create groups ###
group ox type 2
432 atoms in group ox
group hy type 1
864 atoms in group hy

# set charges - beside manually ###
set group ox charge -1.1794
Setting atom values ...
  432 settings made for charge
set group hy charge 0.5897
Setting atom values ...
  864 settings made for charge

# ### TIP3P Potential Parameters ###
pair_style lj/cut/tip4p/long/omp 2 1 1 1 0.1577 8.5
pair_coeff 1 1*2 0.000 0.000
pair_coeff 2 2 0.21084 3.1668
bond_style  harmonic
bond_coeff  1 450 0.9572
angle_style harmonic
angle_coeff 1 55 104.52
kspace_style pppm/tip4p/omp 1.0e-5
pair_modify tail yes

thermo          ${out_freq}
thermo          1000
thermo_style    custom step temp pe etotal epair emol press lx ly lz vol pxx pyy pzz pxy pxz pyz enthalpy

restart 	${out_freq3} restart.lmp.${pid} restart2.lmp.${pid}
restart 	1000 restart.lmp.${pid} restart2.lmp.${pid}
restart 	1000 restart.lmp.0 restart2.lmp.${pid}
restart 	1000 restart.lmp.0 restart2.lmp.0


include         in.dump
dump            myDump all atom ${out_freq2} dump.water.${pid}
dump            myDump all atom 10000 dump.water.${pid}
dump            myDump all atom 10000 dump.water.0
dump            myDump2 all dcd ${out_freq2} dump.dcd
dump            myDump2 all dcd 10000 dump.dcd
dump_modify     myDump append yes
dump_modify     myDump2 append yes


variable natoms 	equal  "count(all)"                        # NUMBER ATOMS
variable H      	equal  "enthalpy/v_natoms"                 # ENTHALPY-per-atom
variable Vol      	equal  "vol/v_natoms"                 # volume-per-atom
fix AVG all 		ave/time ${out_freq} 1 ${out_freq} v_Vol v_H file vol_enthalpy.dat
fix AVG all 		ave/time 1000 1 ${out_freq} v_Vol v_H file vol_enthalpy.dat
fix AVG all 		ave/time 1000 1 1000 v_Vol v_H file vol_enthalpy.dat


timer           timeout 10:00:00 every 1000
New timer settings: style=normal  mode=nosync  timeout=10:00:00

fix 		1 all shake 1e-6 200 0 b 1 a 1
Finding SHAKE clusters ...
       0 = # of size 2 clusters
       0 = # of size 3 clusters
       0 = # of size 4 clusters
     432 = # of frozen angles
  find clusters CPU = 0.001 seconds
fix             2 all nph tri ${pressure} ${pressure} ${pressureDamp}
fix             2 all nph tri 11793.8 ${pressure} ${pressureDamp}
fix             2 all nph tri 11793.8 11793.8 ${pressureDamp}
fix             2 all nph tri 11793.8 11793.8 1000
fix             3 all temp/csvr ${temperature} ${temperature} ${tempDamp} ${seed}
fix             3 all temp/csvr 136.18 ${temperature} ${tempDamp} ${seed}
fix             3 all temp/csvr 136.18 136.18 ${tempDamp} ${seed}
fix             3 all temp/csvr 136.18 136.18 100 ${seed}
fix             3 all temp/csvr 136.18 136.18 100 745823


run             250000
PPPM initialization ...
  extracting TIP4P info from pair style
  using 12-bit tables for long-range coulomb (../kspace.cpp:340)
  G vector (1/distance) = 0.37203141
  grid = 27 36 32
  stencil order = 5
  estimated absolute RMS force accuracy = 0.003595363
  estimated relative force accuracy = 1.0827329e-05
  using double precision FFTW3
  3d grid and FFT values/proc = 4590 540
Last active /omp style is kspace_style pppm/tip4p/omp
Neighbor list info ...
  update every 1 steps, delay 7 steps, check yes
  max neighbors/atom: 2000, page size: 100000
  master list distance cutoff = 10.8154
  ghost atom cutoff = 10.8154
  binsize = 5.4077, bins = 7 5 4
  1 neighbor lists, perpetual/occasional/extra = 1 0 0
  (1) pair lj/cut/tip4p/long/omp, perpetual
      attributes: half, newton on, omp
      pair build: half/bin/newton/tri/omp
      stencil: half/bin/3d/tri
      bin: standard
Setting up Verlet run ...
  Unit style    : real
  Current step  : 39250000
  Time step     : 2
  Walltime left : 9:59:59.92
Per MPI rank memory allocation (min/avg/max) = 9.391 | 9.408 | 9.420 Mbytes
Step Temp PotEng TotEng E_pair E_mol Press Lx Ly Lz Volume Pxx Pyy Pzz Pxy Pxz Pyz Enthalpy 
39250000    141.37596   -6631.0582   -6267.3771   -6631.0582            0     12940.95     23.02732    21.056706       21.396    10374.482    13237.649    14586.692    10998.509   -201.16004    41.753629     -434.613   -4309.3961 
39251000    134.76088   -6643.0677   -6296.4036   -6643.0677            0    11594.501    23.101711    21.188854    21.218503    10386.431     12069.21    11743.104    10971.189   -257.76764   -1070.3165   -1208.5143   -4540.1214 
39252000    135.80921   -6636.7223   -6287.3614   -6636.7223            0    13414.512    23.028703    21.133147    21.210088    10322.292    12739.645    13268.738    14235.152   -745.56436    949.55705    400.31105   -4267.9403 
39253000    138.16158   -6652.1818   -6296.7696   -6652.1818            0    11924.874    22.982448    21.106144    21.410344    10385.534    11758.987    12479.193    11536.442     343.3981   -617.40356    151.30508      -4490.6 
39254000    134.63496   -6666.7472    -6320.407   -6666.7472            0    11580.249    23.069007    21.244515    21.209011    10394.321    11857.346    10853.848    12029.554   -575.55105    -819.9578    -22.60372   -4564.9511 
39255000    138.75154   -6654.9981   -6298.0682   -6654.9981            0    12262.422    23.002704     21.15966    21.300083    10367.376    13043.702    10215.037    13528.526    885.22454    561.66738    904.79387   -4444.0201 
39256000    139.20907   -6654.5231   -6296.4163   -6654.5231            0     10337.65    23.043954    21.231224    21.346177    10443.646    10579.651    9940.0478    10493.252    323.79434    107.03625    215.02728   -4721.8902 
39257000    130.40752   -6644.8397   -6309.3743   -6644.8397            0    10869.029    23.084735    21.171675    21.296192    10408.354    10751.567    10578.077    11277.444    -631.5454    988.82479    76.804313   -4659.5081 
39258000    143.10005   -6659.0134   -6290.8972   -6659.0134            0    11475.612    23.003097    21.107475    21.391761    10386.498    12210.365    10608.226    11608.244     170.7249   -519.72688    1352.3831   -4552.6127 
39259000    139.79608   -6635.3286   -6275.7117   -6635.3286            0    11648.574    23.009647    21.249658    21.273392    10401.564    11330.721    12302.623    11312.379    1192.2945   -1016.4499   -1083.8182   -4508.6679 
39260000    138.80191   -6650.6199   -6293.5605   -6650.6199            0    11688.003    23.033009    21.257792    21.207386    10383.792     11448.38    10603.111    13012.517   -43.536265   -25.441472   -188.29257   -4523.5649 
39261000    136.63392   -6651.9529   -6300.4704   -6651.9529            0    11437.011    22.961324    21.143321    21.415595    10396.814    11753.076    11134.838    11423.117   -497.11062    303.78186    1342.8651   -4566.3124 
39262000    137.62624   -6633.2526   -6279.2175   -6633.2526            0    11401.672    23.060696    21.147459    21.347378    10410.585    11181.088    11251.433    11772.495    289.70794   -10.198939    206.05722   -4548.1278 
39263000    139.76067   -6643.2422   -6283.7163   -6643.2422            0     11938.97    23.120252    21.112217    21.319688    10406.561    11348.062    12083.423    12385.426    145.18581    246.11271    276.10478   -4471.7505 
39264000    134.48647   -6658.1625   -6312.2042   -6658.1625            0    12032.896    23.061173    21.035018    21.376937    10369.786    12732.199    12182.872    11183.617   -97.505892    857.11465   -529.03892    -4492.437 
39265000    138.43664   -6647.2927   -6291.1729   -6647.2927            0    12640.182     22.92259    21.381942    21.135719    10359.239    12874.653    12069.751    12976.142   -426.04485   -1117.5504   -307.82944   -4381.5085 
39266000     137.7167    -6654.308   -6300.0401    -6654.308            0    11437.296    22.909977     21.23323    21.370801    10395.887    11186.397    11828.982    11296.509    281.48021    484.72933    269.08263   -4565.9934 
39267000    137.02671   -6637.5785   -6285.0856   -6637.5785            0    13475.179    23.045894    21.118301    21.198496    10317.098    13726.713    13231.634    13467.191     160.1834   -110.59031    -169.7531   -4257.5522 
39268000    138.34032   -6678.1328   -6322.2608   -6678.1328            0    10942.927    23.067514    21.122978    21.375517    10415.319    11007.994    11004.233    10816.553   -1037.5396   -1011.9269    9.4224187   -4660.0659 
39269000    135.63441   -6652.9832    -6304.072   -6652.9832            0    11325.763    23.180137    21.041754    21.336117    10406.707    10713.939     11650.34     11613.01    211.04829     539.1626    706.69096    -4585.148 
39270000    132.17857   -6644.7435   -6304.7222   -6644.7435            0    12467.661    23.090031    21.139284    21.304237    10398.741    11940.124    12535.587    12927.273    410.25058    73.326814    569.67415   -4413.9392 
39271000       134.84   -6661.6124   -6314.7448   -6661.6124            0    11431.801    22.858905    21.344011    21.277411    10381.264    12068.136    9611.1399    12616.128    1062.2847    29.953419     889.6795    -4583.969 
39272000     135.2347   -6643.3059   -6295.4229   -6643.3059            0     11563.24    22.959326    21.261129    21.302739    10398.744    11993.455    11747.552    10948.713     725.8155    369.02634   -44.267884   -4541.7996 
39273000    134.34128   -6652.0447   -6306.4599   -6652.0447            0    11224.262    22.928269    21.244888    21.372551    10410.752    12400.052     10563.78    10708.954     323.0639   -87.365504    20.179171   -4602.2787 
39274000    145.13187   -6618.9647   -6245.6218   -6618.9647            0    13801.553    23.029955    21.032485    21.307191    10320.717    13542.447     14701.47    13160.741    -1154.588    605.79742   -773.06331   -4168.2525 
39275000    145.69653   -6654.0744    -6279.279   -6654.0744            0     11240.38    23.131832    21.047788    21.372215    10405.573    11066.884    11685.453    10968.803   -705.81099   -88.134718    716.35867   -4573.4995 
39276000    138.80185   -6630.8829   -6273.8236   -6630.8829            0    11644.101    23.199731    21.014368     21.27502    10372.162    11011.899    11492.443     12427.96    375.20567    199.27545    120.19294   -4512.4515 
39277000    139.39842   -6642.2072   -6283.6133   -6642.2072            0    12519.013    22.964078    21.126308    21.363632    10364.485    13090.524    12438.477    12028.038   -1203.7014   -269.60859   -620.37585   -4391.2971 
39278000    135.89262   -6660.7532   -6311.1777   -6660.7532            0     11769.15    22.968376    21.299769    21.199729    10371.355    10861.855    12215.912    12229.684    1380.1963   -806.60105    287.40651    -4531.028 
39279000    130.94854    -6651.599   -6314.7419    -6651.599            0    11123.281    22.987541    21.211966    21.354996     10412.93    11083.171    11186.881    11099.792    401.49599    577.69645    -273.3233   -4625.5392 
39280000    144.78646   -6645.5157   -6273.0613   -6645.5157            0     12642.03    23.125115    21.043498    21.293145    10361.954    11217.192    13826.551    12882.346    184.18717    648.09461    558.32419   -4362.6171 
39281000     143.5684   -6655.0836   -6285.7627   -6655.0836            0    11304.752    23.088117    21.139298    21.323646    10407.359    10656.689    12154.515    11103.053    630.54419   -936.54583   -273.62445     -4569.92 
39282000     138.9954   -6649.0414   -6291.4842   -6649.0414            0    11325.045    23.183992     20.96825    21.412736    10409.325    11629.551    10797.847    11547.738    1724.9424   -884.79313    151.98704   -4572.2367 
39283000    137.30943   -6645.6856   -6292.4654   -6645.6856            0    12623.385     23.06435    21.093161    21.282699    10354.034     11772.59    13594.875    12502.689    944.73127    37.848226    891.65535   -4386.2969 
39284000    137.68206   -6655.9656   -6301.7869   -6655.9656            0    12384.051    23.055116    21.201563    21.214746    10369.863    11853.878    12044.233    13254.042    281.24562   -661.18228   -227.63996   -4428.8996 
39285000    132.88956   -6654.1736   -6312.3233   -6654.1736            0    11877.776    22.926532    21.166371    21.431421    10400.058    13149.969    11037.179    11446.179    57.844172    108.88989    191.32969   -4510.7715 
39286000    138.63007   -6664.1184    -6307.501   -6664.1184            0    11278.233    23.031197    21.288627    21.201998    10395.394    11095.713    10191.771    12547.216   -1058.0075    1167.8447    1581.2016   -4597.6514 
39287000    140.26452   -6652.4609    -6291.639   -6652.4609            0    12522.521    23.077243    20.956869    21.423236     10360.85    12471.863    13627.751    11467.949   -193.92854   -302.17762   -54.079187   -4399.4564 
39288000    135.99243   -6648.6235   -6298.7913   -6648.6235            0     11703.65    23.136551    21.086703       21.309    10396.098    12354.456    10980.744     11775.75    83.977058   -1010.4512    319.66707   -4524.3256 
39289000    129.66722   -6635.3807   -6301.8197   -6635.3807            0    10495.864    23.150894    21.175714    21.293576    10438.893    9814.3695    11926.622    9746.6002    221.51497   -641.56039     -847.605   -4703.9236 
39290000    136.51938   -6652.4449   -6301.2571   -6652.4449            0     12978.64     22.89401    21.137483     21.40786    10359.729    13375.945    12926.052    12633.923    510.76056    460.67283    -150.7597    -4340.366 
39291000    134.35798   -6647.0661   -6301.4384   -6647.0661            0    12985.392    22.901811    21.246858    21.256511    10343.238    14050.225    12152.251    12753.698     59.00969    1165.3859    592.17857   -4342.6504 
39292000    137.48892   -6658.2703   -6304.5884   -6658.2703            0    11128.625    23.039526    21.223251    21.293237    10411.832    10319.763    11603.127    11462.984   -610.00185    365.63695   -705.46442   -4614.7525 
39293000    137.41639   -6639.8965   -6286.4012   -6639.8965            0    12567.842    23.199052    20.966578    21.292657     10356.85    11162.545    13791.426    12749.555   -53.507492   -27.661017   -251.18975   -4388.1038 
39294000    142.84262   -6658.2507   -6290.7968   -6658.2507            0    12468.505    23.103393    21.091204    21.265281    10362.112    11919.324    12442.274    13043.918   -8.1805844    -409.6812    627.89942   -4406.5467 
39295000    129.98135   -6668.8498   -6334.4807   -6668.8498            0    12434.703    22.931254    21.203766    21.324548    10368.613    13572.842    11611.867      12119.4    855.67405   -736.45608   -438.16263   -4454.1598 
39296000    142.04824   -6658.2436   -6292.8331   -6658.2436            0    11536.386    22.936924     21.28604    21.294153    10396.578    11376.102    10391.788    12841.269    313.17763     932.6698    48.661577   -4543.6467 
39297000    130.45225   -6641.4099   -6305.8294   -6641.4099            0    12551.773    22.947483     21.23752    21.258169    10360.118    13711.266    11914.499    12029.555    63.970908   -692.58572   -38.667389   -4409.3607 
39298000    136.43016   -6634.1991   -6283.2408   -6634.1991            0    12037.583    22.862008    21.293087    21.306793    10372.205    12694.963    11245.533    12172.251    174.49786   -710.89855    372.32996   -4462.3401 
39299000    140.39146    -6642.529   -6281.3805    -6642.529            0    12155.206    23.144254    21.064855    21.281233    10375.247    10571.665     13805.92    12088.034   -104.91558    465.33053   -894.05286   -4442.1479 
39300000    135.66793   -6647.3289   -6298.3314   -6647.3289            0    10815.399    23.206293    21.081013    21.283862    10412.324    9690.4388    10867.403    11888.356    175.04639    108.41069   -387.52631   -4655.9799 
39301000    136.88083   -6642.1558   -6290.0382   -6642.1558            0    10500.576    23.078617    21.126089    21.404215    10435.859    9527.5386    12278.854    9695.3361    459.10272   -85.591954   -64.951348   -4691.8894 
39302000    133.18749   -6655.3264   -6312.7097   -6655.3264            0    11477.496    22.977623    21.169604    21.349106    10384.785    12017.163    11572.101    10843.225    269.98202   -410.65032   -931.32526   -4574.4263 
39303000    126.97291   -6635.6392   -6309.0092   -6635.6392            0    11492.005    22.878433    21.268846     21.36675    10397.015    11981.469    11755.882    10738.664    759.26861    966.15449   -405.83765   -4566.4787 
39304000    136.69119   -6637.9228   -6286.2931   -6637.9228            0     12447.67    23.097453    21.196839      21.2129    10385.687    11733.124    12115.334    13494.551    2026.2324   -583.02295   -366.93857   -4400.9118 
39305000    134.51324   -6630.7896   -6284.7625   -6630.7896            0    12523.242    23.081236    21.019113    21.351308    10358.525    12403.389    12546.969    12619.369    389.79116    23.651433   -82.134915   -4392.8955 
39306000    136.59693   -6628.2413    -6276.854   -6628.2413            0    11315.061    23.182397    21.030453    21.327595    10397.977    10141.187    12354.102    11449.895   -319.91935    234.42945    219.75672   -4560.9947 
39307000    137.43785   -6651.3013   -6297.7508   -6651.3013            0    12084.798    23.133246    21.088734    21.276793    10379.902    12220.732    11734.936    12298.727    71.634538   -451.13291   -533.98279   -4468.3514 
39308000    135.02412   -6651.3961   -6304.0548   -6651.3961            0    11906.111    22.989474    21.113921    21.413555    10394.095    11155.301     12775.46    11787.573    656.40505    75.741449    668.32049   -4499.2405 
39309000     132.3758   -6638.8632   -6298.3346   -6638.8632            0    11787.677    23.030828     21.34529    21.161757    10403.113    11019.437     11292.52    13051.075   -1962.1326     415.6874   -413.17446   -4509.9231 
39310000    131.69804   -6658.6472    -6319.862   -6658.6472            0    11630.696    22.911679    21.178045    21.435933    10401.241    12810.725    11644.589    10436.774    85.817097   -820.58637     66.66494    -4555.585 
39311000      139.765   -6645.1726   -6285.6356   -6645.1726            0    13005.393    23.237917    20.926367    21.245765      10331.5    11294.544     14005.46    13716.175     717.3993    415.69779    1679.2263   -4326.0567 
39312000    139.81265   -6651.6215    -6291.962   -6651.6215            0    12144.101    23.038368    21.138465    21.344691    10394.774    11574.608    12199.244    12658.451   -144.14175   -465.16704    271.56395   -4450.9514 
39313000    143.10969   -6639.1127   -6270.9717   -6639.1127            0    12658.031     22.99969    21.217752      21.2553    10372.623    11798.228    12637.376    13538.489    524.81534    636.72922   -93.107012   -4356.1399 
39314000      134.789   -6643.9909   -6297.2544   -6643.9909            0    11725.983    22.886009    21.287951    21.282764    10368.883      12631.3    10384.852    12161.797    -242.3628    383.13501     1068.512   -4524.0569 
39315000    133.03981   -6665.3814   -6323.1446   -6665.3814            0    12462.027    22.880958    21.167737    21.385504    10357.815    13780.168    12290.763    11315.152    129.08506   -219.76652   -317.15757   -4440.6543 
39316000    139.46753   -6637.3217     -6278.55   -6637.3217            0    12051.788    23.184267    21.143637      21.1835    10384.145    10981.082    13007.192     12167.09    902.11808   -1228.7972   -207.51905   -4453.4017 
39317000    131.89836   -6660.5576   -6321.2571   -6660.5576            0    11447.402    23.143267    21.047492    21.330891    10390.442    12188.893    11722.247    10431.068   -124.18719    -416.9082   -76.355357   -4586.5871 
39318000    130.72582    -6649.627   -6313.3428    -6649.627            0    11613.121    23.039948    21.112853    21.365523    10393.025     12041.06    12159.192    10639.111   -852.43647   -940.08204   -200.13291   -4553.1234 
39319000    127.83421   -6654.4759   -6325.6302   -6654.4759            0    11325.621    22.946368    21.336182    21.223548    10390.792    11610.677      10280.5    12085.686   -1710.1891    705.49508    -596.9283   -4609.3564 
39320000    135.84586   -6652.3188   -6302.8636   -6652.3188            0     11297.21    22.982661    21.197441    21.341345     10396.94    11967.218    10892.459    11031.954    409.06185    632.50269     515.5214   -4589.8823 
39321000    134.79512   -6643.4304   -6296.6781   -6643.4304            0    11591.933    22.954665    21.278983    21.268598    10388.688    11745.042    10808.158    12222.599    655.23076   -324.06618    1122.6716   -4540.4035 
39322000    142.58471   -6635.4197   -6268.6292   -6635.4197            0    12716.485    23.113563    21.134517    21.235476    10373.402    11065.243    12755.971     14328.24     905.8083    51.396146    511.88171   -4344.8103 
39323000    133.31115   -6658.0696   -6315.1348   -6658.0696            0    12086.996    23.055915    21.085419    21.358472    10383.285    11785.359    11907.723    12567.906    209.31043    229.54464    68.644197   -4484.8063 
39324000    137.31901   -6649.9592   -6296.7144   -6649.9592            0    12667.001    23.107353    21.137119     21.22517    10366.858    12888.906     12486.68    12625.418   -266.36615    159.36779    271.58946   -4381.5905 
39325000    137.74628   -6653.6599    -6299.316   -6653.6599            0    12549.707    23.031819    21.147907    21.285408    10367.585    12626.451    11831.696    13190.975     1216.455   -889.58799    393.56784   -4401.7927 
39326000    131.32782   -6633.6311   -6295.7983   -6633.6311            0    12802.829    22.946838    21.205477    21.299646    10364.379    13463.288    13048.838    11896.362    124.95214     200.8992   -568.32026   -4360.6015 
39327000    136.45494   -6672.9728   -6321.9508   -6672.9728            0    10216.246    23.023751      21.3163    21.276305     10442.01    11325.811    8686.0971     10636.83   -444.20189   -272.22677    163.01754   -4766.1594 
39328000    140.37781    -6642.314   -6281.2007    -6642.314            0    11289.699    23.016037    21.183616    21.359987    10414.337    11879.812    11398.656    10590.629     420.5932    -664.1178    -800.2449   -4566.4938 
39329000    132.10798   -6648.0331   -6308.1934   -6648.0331            0    12295.884    22.967743    21.066795     21.39816    10353.644    12846.537    11894.125    12146.989   -975.21843    120.10277    1385.5753   -4451.5485 
39330000    138.15012   -6635.2371   -6279.8543   -6635.2371            0    10965.939    23.142168    21.161882     21.23184    10397.908    9315.2893    12096.019     11486.51    401.52118   -92.029238    448.53217   -4616.9483 
39331000    137.23256   -6668.1204    -6315.098   -6668.1204            0    10637.578    23.086073    21.050329    21.470932    10434.217    11609.016     9662.746    10640.973    134.38294   -442.78679    383.73333   -4696.3528 
39332000    135.15194   -6649.4161    -6301.746   -6649.4161            0    12369.781    23.010148    21.201316    21.222211    10353.158    12068.283    12608.006    12433.055    791.08638    401.20689   -108.44743   -4434.0303 
39333000     137.8376   -6659.6658    -6305.087   -6659.6658            0    11199.001    22.920524    21.348332    21.280577    10412.904    12909.479    9090.8646    11596.659   -368.78677   -684.04188   -239.68067   -4604.3896 
39334000    142.23982   -6639.5389   -6273.6356   -6639.5389            0    11161.965    23.072578    21.220652    21.262285    10410.337    10887.817    10305.425    12292.653    950.95257   -290.41261    450.35613   -4578.9805 
39335000    134.43107   -6650.1054   -6304.2897   -6650.1054            0    12266.744    23.000058    21.146973    21.316983    10368.188    11662.702     12691.55    12445.981    1319.7217    9.7404666    1130.8645   -4449.4427 
39336000    138.99585   -6671.4585   -6313.9001   -6671.4585            0     10862.29    23.102488    21.123499    21.345483     10416.71    10864.164     10939.91    10782.797    128.70786   -518.47174    218.94659   -4663.7332 
39337000    134.35392   -6661.8179   -6316.2006   -6661.8179            0    10993.258    23.282843    20.944984    21.301755    10387.988    9855.4034    11956.609     11167.76     -310.373    123.10189   -255.20101   -4650.7425 
39338000    136.15592   -6632.3494   -6282.0966   -6632.3494            0    12991.285     22.94307    21.119805    21.342208    10341.435    13426.808    14315.995    11231.053   -362.61343    40.517735   -688.60094   -4322.7611 
39339000    132.97659   -6667.0683   -6324.9941   -6667.0683            0    12359.052    23.087817    21.110925    21.289706    10376.713    11278.156    12259.379    13539.621    811.45145   -150.89985    448.67494   -4454.6528 
39340000    137.24179   -6662.5652    -6309.519   -6662.5652            0    11468.148    22.897297    21.325068    21.311354    10406.045    11223.085    11763.948    11417.411    437.46188   -46.282606   -288.64507   -4569.0958 
39341000    132.07573    -6650.773   -6311.0162    -6650.773            0    12031.344    23.092611    21.138344    21.228325    10362.385    12515.052     11300.49    12278.491    113.49873   -190.56977    108.83324   -4492.7822 
39342000    137.97932   -6650.7821   -6295.8387   -6650.7821            0    12616.235    23.102699    21.061309    21.305962    10366.908    12556.092    12905.708    12386.906   -468.23354    352.40939   -315.59486    -4388.381 
39343000     136.6985    -6649.831   -6298.1825    -6649.831            0    11948.888    22.963558    21.208165    21.309031    10377.816    11676.471    12445.095      11725.1   -267.43215    965.02795    678.56012   -4489.7206 
39344000    134.91093   -6644.8311   -6297.7809   -6644.8311            0    10457.537    23.035362    21.185308    21.326306    10407.477    9783.8984    10346.258    11242.455    1311.9504     -63.4614    598.08687   -4710.5111 
39345000    128.40846   -6654.6438   -6324.3209   -6654.6438            0    11547.799     22.96057    21.213912    21.341845     10395.26    11763.849     11550.32    11329.228   -970.12209     1072.876   -100.47722    -4573.626 
39346000    142.47834   -6651.8241   -6285.3073   -6651.8241            0    12115.305    23.079977    21.199064    21.234921    10389.693    11488.594    11933.305    12924.015   -248.37739   0.93414258   -1032.2975   -4449.5598 
39347000    134.77481   -6651.2487   -6304.5487   -6651.2487            0     10877.81    23.107071    20.987686    21.467571    10410.998     11569.62     10942.93     10120.88    448.71349   -755.55712   -198.76123   -4652.9304 
39348000     128.6744   -6652.2458   -6321.2387   -6652.2458            0    11700.455    23.025884    21.199591    21.293215    10394.055    11786.855     11608.42     11706.09   -745.51008    223.84456    367.95935   -4547.6061 
39349000    136.18932   -6644.2885   -6293.9498   -6644.2885            0    13172.727    22.961472    21.119998     21.34978    10353.495    12209.703    13808.077    13500.402    73.990186    490.89603    156.90527   -4304.9324 
39350000    134.25251   -6653.1148   -6307.7584   -6653.1148            0    11668.167    23.006281    21.231827     21.27797    10393.552    11753.791     10996.28    12254.431    1511.8268    566.69444    882.32217    -4539.106 
39351000    134.95499   -6661.0757   -6313.9122   -6661.0757            0    12046.073    22.910263    21.326976    21.209994    10363.344    13032.449    11040.561    12065.207    434.17133   -487.17163    102.78706   -4493.2839 
39352000    135.42625   -6646.7188    -6298.343   -6646.7188            0    12473.765    22.911261    21.186184     21.33373    10355.439    13004.526    12507.088     11909.68    267.44636   -532.10588   -364.37583    -4414.512 
39353000    137.57022   -6634.1658   -6280.2748   -6634.1658            0    12020.803    23.224598    21.005533    21.275112    10378.958    11745.448    12213.477    12103.485   -161.46897    206.92964    145.77993   -4460.7284 
39354000    137.51753   -6650.3216   -6296.5662   -6650.3216            0    10846.285    23.189464    21.142215    21.241737    10414.327    10341.385    10324.462    11873.008   -862.25313   -593.86196    199.55509   -4649.2076 
39355000     138.1462   -6640.7226     -6285.35   -6640.7226            0    12345.185    23.030428    21.088562    21.362347    10375.235    12342.828    12598.605    12094.122    1006.9015    271.19221   -107.56345   -4417.3734 
39356000    133.32148   -6652.5279   -6309.5665   -6652.5279            0    11245.578    23.033702      21.2322    21.238206    10386.676    10607.011     10914.84    12214.881     546.6739    336.26213   -92.372721   -4606.0975 
39357000    134.74595   -6656.1567   -6309.5309   -6656.1567            0    11344.954    22.879011    21.394606    21.267387    10410.119    12168.505     10545.44    11320.916    822.95355    648.45008    516.64257   -4587.1298 
39358000    136.46378   -6652.9146   -6301.8698   -6652.9146            0    11678.406    22.911385    21.290034    21.288159    10384.027    12054.223    10563.539    12417.455    1033.0225    324.39458    978.88537   -4533.2877 
39359000    129.73101   -6641.2887   -6307.5636   -6641.2887            0    12431.941     23.02716    21.108003    21.328657     10366.95    12769.331    13213.015    11313.478   -323.00713    198.95737   -11.732588   -4427.9617 
39360000     133.6933   -6660.5428    -6316.625   -6660.5428            0    10887.248    23.317905    20.900035    21.390613    10424.609     9480.701    11405.898    11775.146   -577.60927    429.06339    898.02721   -4661.4123 
39361000    136.26433   -6644.3627    -6293.831   -6644.3627            0    12338.109    23.140154     21.12813    21.245443    10387.071    11791.216    12464.624    12758.487    1053.3492   -360.54584    659.06929   -4424.7953 
39362000    137.00157   -6644.9319   -6292.5037   -6644.9319            0     12883.27    22.883824    21.196176     21.33466    10348.368    14836.812    11506.647    12306.352   -916.08659   -324.17519    880.52614   -4348.1563 
39363000    138.38813    -6656.899   -6300.9039    -6656.899            0    11174.044    23.005867    21.253476    21.298976    10414.234    9738.9455    10698.589    13084.597    1124.4545    890.77593    315.34925   -4603.7799 
39364000    140.80634   -6652.2268   -6290.0111   -6652.2268            0      11899.8    22.926323    21.273043    21.297459     10387.04    11746.395     11528.03    12424.975   -995.95411    268.27198    488.04485   -4487.3779 
39365000    134.03508   -6635.8884   -6291.0913   -6635.8884            0     11995.84     23.07594    21.167664    21.259564    10384.526    11186.217    12441.976    12359.327    892.63173    58.180069   -250.51677   -4474.3494 
39366000    131.03443   -6661.1471    -6324.069   -6661.1471            0    11450.485    23.168352    21.030247    21.320308    10388.025    10835.269    12060.081    11456.106   -413.73539   -98.659325    407.18677   -4589.3355 
39367000    130.32172   -6667.3658   -6332.1212   -6667.3658            0    12035.188    23.101352    21.135783     21.23638    10368.984    11192.426    12310.516    12602.621   -1348.2735    418.17549   -249.20086    -4512.148 
39368000    135.18031   -6665.5105   -6317.7674   -6665.5105            0    11792.117    22.999725    21.114536    21.376191    10380.888    12240.117    11482.299    11653.936    173.96173    378.38526   -166.83098   -4532.5045 
39369000     133.8424   -6656.1817   -6311.8803   -6656.1817            0    11159.022    23.011549    21.171022    21.382332    10417.002    11162.667    10684.327    11630.072    183.96975    512.26744    765.58855   -4616.5872 
39370000    143.45709   -6670.5826   -6301.5479   -6670.5826            0    11348.218    23.064955    21.218226    21.231533    10390.658    11156.128    10993.142    11895.383    171.47283   -527.69183    270.82037   -4581.8721 
39371000    136.90953   -6661.2662   -6309.0748   -6661.2662            0    11186.127    23.045999     21.07176    21.454265    10418.615    11396.088    11272.434    10889.858    720.25846   -498.42202   -361.81696   -4609.4008 
39372000    144.38338   -6644.6164    -6273.199   -6644.6164            0    12079.235    23.098657    21.238394    21.097639    10350.046    12388.383    11087.665    12761.657    -69.21518   -831.83853   -249.25586   -4449.9013 
39373000    133.83379   -6649.5493     -6305.27   -6649.5493            0    12987.711    22.902355    21.187396    21.364001    10366.695    13907.426    11946.773    13108.934    498.97382   -307.54723   -915.55581    -4341.689 
39374000    139.37728   -6645.3207   -6286.7812   -6645.3207            0    12822.721    22.977983    21.176067    21.270497    10349.869    12856.786    13567.739    12043.638   -379.78855     554.6536   -874.64755   -4351.2912 
39375000    138.36269   -6655.1672   -6299.2376   -6655.1672            0     9665.426    23.102665     21.23801    21.313394    10457.515    8753.0318    10189.294    10053.952    219.99371    1085.6627   -350.00186   -4825.1429 
39376000    138.45815   -6661.3309   -6305.1557   -6661.3309            0    11762.681    23.031998    21.079109     21.38947     10384.46    10891.235    13417.466    10979.343    965.33923    -538.2874   -1020.4552   -4523.7365 
39377000     133.7977   -6650.3951   -6306.2087   -6650.3951            0    11231.464    23.279976    21.063308    21.199372    10395.182    10791.469    12368.934    10533.988   -721.09173    108.09666     -262.249   -4603.4843 
39378000    133.47506   -6640.9939   -6297.6374   -6640.9939            0    12533.752     23.10836    20.995228     21.35884    10362.568    12537.278    12822.647    12241.331    604.60956   -169.79753    502.41303   -4403.4438 
39379000    137.74648   -6626.9919   -6272.6475   -6626.9919            0    12637.032    23.012342    21.120918    21.312693    10358.859    14163.392    12045.696    11702.009   -11.841225   -472.47068   -2029.6065   -4363.5288 
39380000    131.40305   -6668.0605   -6330.0342   -6668.0605            0      10985.4    22.869455    21.280689    21.365835    10398.277    11780.114    10701.596    10474.489    200.99586   -129.17433    186.23861    -4664.118 
39381000    129.54657   -6655.9946    -6322.744   -6655.9946            0    11784.476    23.039867    21.177614    21.268439    10377.497    12695.205    11070.381    11587.843   -13.352212   -424.23821    -407.9511   -4539.2206 
39382000    140.54576   -6642.6454      -6281.1   -6642.6454            0    12106.369    23.054925    21.217936    21.227958    10384.248    11817.862    11990.681    12510.564   -60.571404   -421.59239   -601.23936   -4447.6678 
39383000    137.72586   -6644.4943   -6290.2029   -6644.4943            0    11931.943    23.012093    21.099878    21.404426     10392.97    12802.896     11972.76    11020.173   -59.435283   -283.76474   -80.932886   -4481.6688 
39384000    127.99389   -6646.3127   -6317.0562   -6646.3127            0    12017.389    23.147853    21.114023    21.200397    10361.573    10997.459    12090.941    12963.768   -1262.9024    397.31071    178.16022   -4501.0734 
39385000    131.40934   -6668.2147   -6330.1721   -6668.2147            0    11051.745    22.979195     21.23163    21.377031    10429.549    11516.062     11279.22    10359.954   -765.57107   -700.77462   -374.67178   -4649.1544 
39386000    139.56283   -6647.5283   -6288.5114   -6647.5283            0    10725.772    23.118341    21.163783    21.305542    10424.196    9794.6727    11609.282    10773.362    542.31967     215.9667    8.4851011    -4657.913 
39387000    141.00859   -6663.1804   -6300.4444   -6663.1804            0     11962.25    23.090994    21.058496    21.316489     10365.39    11634.564     12101.98    12150.206    1173.7955   -54.054449    385.02477   -4492.1281 
39388000    135.83275   -6672.0674   -6322.6459   -6672.0674            0    10633.493    23.044606    21.212616    21.332338    10428.023    10893.129    10323.828    10683.522   -238.75179   -199.26064   -365.64367   -4705.4828 
39389000     130.2642   -6645.2153   -6310.1186   -6645.2153            0    11587.766    23.019356    21.183508    21.298845    10385.971    12016.542     10520.04    12226.715   -634.56977   -187.25866    360.05608   -4554.9343 
39390000    134.01511   -6641.1448    -6296.399   -6641.1448            0    12187.698    23.030536    21.144065    21.270385    10357.808    11603.771    12619.312    12340.012    287.30434   -141.07593    301.24763   -4455.3496 
39391000    135.63912   -6672.0046   -6323.0812   -6672.0046            0    10380.246    23.021313    21.221412    21.369194    10439.808    11718.864    10516.534    8905.3398   -320.98783   -767.67607   -639.36521   -4742.6484 
39392000    135.19073   -6646.1063   -6298.3364   -6646.1063            0    13082.229    23.110019    21.159971    21.196954    10365.466    12400.404    12827.007    14019.277    398.57809    1074.4514   -65.404328   -4320.6999 
39393000    135.40798   -6650.7673   -6302.4385   -6650.7673            0    11140.023     23.01035    21.229262    21.333245    10421.136    11148.589    11400.803    10870.676   -657.95367    101.82605    474.42016   -4609.3604 
39394000    137.28806   -6651.3702   -6298.2051   -6651.3702            0    12126.863    23.091546    21.107191    21.268004    10365.976    11057.387    12181.226    13141.976   -740.27391    2045.0641   -59.997979   -4464.9007 
39395000    137.85803   -6638.1292   -6283.4979   -6638.1292            0    11493.316    23.027416    21.175944    21.332207    10402.166    12666.158    10841.678    10972.112    203.01548   -369.75146   -321.39679   -4539.9053 
39396000    132.43106   -6651.8308     -6311.16   -6651.8308            0    11162.772    22.994235    21.273153     21.29838    10418.313     11184.11    11001.193    11303.013    1111.3947   -622.55168   -500.76239   -4615.0839 
39397000    132.14811    -6653.552   -6313.6091    -6653.552            0    11711.994    23.008508    21.241983    21.241758    10381.831    11332.042     12201.64    11602.301    47.145103    -95.52603   -537.90693   -4540.3152 
39398000    134.98064   -6662.4601   -6315.2306   -6662.4601            0    12304.152    23.023259    21.119409    21.322938    10368.015     11784.61    12252.998    12874.849   -462.89787    828.79224    313.69895   -4454.7584 
39399000     135.4957   -6633.8508   -6285.2964   -6633.8508            0    11316.693    23.000679    21.122484    21.449233    10420.712    10650.257    13100.971     10198.85    269.85122    346.98331   -107.99859   -4565.4375 
39400000     134.1735   -6651.9997   -6306.8465   -6651.9997            0    12025.507    23.156432    21.084282    21.248198    10374.151    10530.819    13317.573    12228.128    472.03279   -580.95774   -981.90952   -4487.4313 
39401000    135.95646   -6636.1228   -6286.3831   -6636.1228            0    11747.014    23.034682    21.143541    21.330593     10388.74    11510.009    11654.679    12076.354    246.08616   -723.50314   -162.00459   -4506.6034 
39402000    133.97684   -6667.7884   -6323.1411   -6667.7884            0    10875.547     22.99521    21.339755    21.204026    10405.073    10726.435    10690.799    11209.408   -264.95804   -36.101252    743.54382    -4672.806 
39403000    140.53197   -6642.1635   -6280.6536   -6642.1635            0    11782.449    23.006532     21.14863    21.354469    10390.159    11766.863    11988.317    11592.166     601.7971   -251.72252   -200.97418   -4495.2614 
39404000    131.33659   -6642.1301   -6304.2747   -6642.1301            0    10963.996    23.007157    21.201025    21.356669    10417.256    11637.083    10234.669    11020.236    -905.8978   -784.51682    628.05026   -4638.5697 
39405000    130.68518    -6652.603   -6316.4233    -6652.603            0    11757.082    23.148336    21.145397    21.187899    10371.069     11544.96    11409.072    12317.213   -760.74737   -329.39498   -131.35924   -4538.1483 
39406000    129.55636   -6659.0271   -6325.7512   -6659.0271            0    12253.209    23.020803    21.047102     21.37549    10356.878    12152.089    13060.807    11546.732    197.35112   -294.75801   -376.94514   -4474.9721 
39407000     136.7369   -6663.5376   -6311.7902   -6663.5376            0    11507.489    23.031717    21.212464    21.248121    10380.971    10634.707    12617.025    11270.735    44.706923    1037.3736    252.55549   -4569.6046 
39408000    135.93438   -6659.0318   -6309.3489   -6659.0318            0    12093.952    22.820714    21.224706    21.415874    10373.056    12635.572    11828.796    11817.489   -108.80235    1250.7516     691.7879   -4479.7712 
39409000    138.06443   -6649.6485   -6294.4862   -6649.6485            0    12422.438    23.078412    21.206807    21.181448    10366.612     12103.58    12097.191    13066.543   -114.59961    114.61623   -91.311679   -4416.3824 
39410000    133.96151   -6646.7358    -6302.128   -6646.7358            0    12664.462    23.052848    21.082021    21.299472    10351.557    12236.468     12297.96    13458.958   -264.52732   -1050.6035    301.34234   -4390.2143 
39411000    129.02227   -6662.5545   -6330.6526   -6662.5545            0    10914.128    23.156799     21.01895     21.43748    10434.299    10898.038    11389.939    10454.408   -1378.7215   -40.113504   -581.70955   -4669.8109 
39412000    130.16954   -6631.9498   -6297.0965   -6631.9498            0    11402.822    23.146069    21.140474    21.200812    10373.958     11684.76    11837.532    10686.175   -91.418581  -0.31270074   -598.46756   -4571.9233 
39413000    132.12171     -6644.46   -6304.5849     -6644.46            0     12006.38    22.874348    21.176181    21.423006    10377.118    13416.036    11511.782    11091.321    55.834109   -576.54752    308.39062   -4487.5439 
39414000    132.73529   -6653.5615    -6312.108   -6653.5615            0    12204.449    22.992017    21.283817    21.189299    10369.151    12837.745      11513.1    12262.503   -427.87676    501.06013   -721.42343   -4466.5094 
39415000    136.26952   -6653.6396   -6303.0945   -6653.6396            0    11473.282    22.923948     21.22728    21.360974    10394.529    11229.249    11334.561    11856.037    415.43799   -613.01549   -329.60534   -4563.8191 
39416000    136.73533   -6631.8214   -6280.0781   -6631.8214            0    12974.406     23.03645    21.097525    21.312186    10357.979    12467.739     13934.03    12521.448   -440.43682    98.996017   -120.73507   -4320.1578 
39417000    137.25548   -6665.6197   -6312.5383   -6665.6197            0    11428.373    23.194745    21.068919    21.289636    10403.994    11818.953     10815.75    11650.415   -414.12172    298.53835   -652.85092   -4578.4932 
39418000    138.89348   -6645.2745   -6287.9794   -6645.2745            0    11254.315    23.077254    21.077373    21.408372    10413.201    11968.647    11980.407    9813.8905   -1197.5998   -1216.0835   -10.942643   -4578.8333 
39419000    139.25768    -6633.529   -6275.2971    -6633.529            0    11889.992    23.051941    21.187347    21.301824    10404.013    11505.469    12427.274    11737.234   -74.216944    444.23637    84.240811   -4471.2066 
39420000    139.74015   -6657.2662   -6297.7932   -6657.2662            0    12638.546    22.991062    21.253356    21.180992    10349.821    12790.688    12368.744    12756.207    472.33156   -451.76237   -467.71695   -4390.1118 
39421000    136.24016   -6650.5181   -6300.0486   -6650.5181            0    11493.515    22.951771    21.245861    21.304732    10388.829    12578.814    11193.413    10708.319    434.89352   -768.06569    154.84671   -4558.6613 
39422000    140.19394   -6666.0122   -6305.3718   -6666.0122            0     10094.28    23.069988    21.196166    21.339958    10435.139     9621.679    9882.3517     10778.81   -704.46913    765.63233    676.17888   -4769.1658 
39423000    132.13956   -6652.3767   -6312.4558   -6652.3767            0    11965.287    23.120872    21.097225    21.290065        10385    11931.582    12519.207    11445.071    41.776509   -1154.3587   -1339.0897   -4500.2583 
39424000    135.39069   -6659.6039   -6311.3196   -6659.6039            0    11463.988    23.228858    20.933985    21.362034    10387.771    10130.166    11997.502    12264.296    1143.2453    -64.94213    1476.3729    -4574.583 
39425000    140.76243   -6658.8518    -6296.749   -6658.8518            0    11527.893    23.124176    21.151994    21.216672     10377.55    10666.182    12298.643    11618.853    104.86551   -440.54163    352.50723   -4552.0494 
39426000    134.94138   -6658.0009   -6310.8724   -6658.0009            0    12677.066    22.951636    21.216298     21.27457    10359.625    13106.108    11883.226    13041.863    544.23034   -522.79465   -110.33873   -4395.5642 
39427000    139.27928   -6629.6809   -6271.3934   -6629.6809            0    12870.808    22.953462    21.200259    21.301346    10365.647    12095.502    14508.603    12008.319    1282.1636    598.57612    -486.9093   -4325.6834 
39428000    133.74859    -6634.245   -6290.1849    -6634.245            0    12655.465    22.877351    21.276933    21.298229    10367.123    12955.162    11578.664    13432.568   -1254.1533    390.39199    256.95755   -4376.7563 
39429000    140.72993   -6663.3006   -6301.2815   -6663.3006            0    12120.725    22.974296    21.207877    21.314613    10385.248    12289.784    11225.941    12846.451    683.82567    15.100071    65.751605   -4465.4984 
39430000    139.31823   -6653.0101   -6294.6224   -6653.0101            0    12043.804    23.126753     21.06037    21.310746    10379.569    11869.837    12094.933    12166.641    -145.1485   -351.47912     1350.402   -4471.4872 
39431000    133.15553   -6654.1534   -6311.6189   -6654.1534            0    11087.204    23.153725    21.126745    21.306673    10422.433    10309.207    10877.097    12075.308    729.60181   -942.22763    -287.7095   -4626.3585 
39432000    137.71587   -6642.5607    -6288.295   -6642.5607            0    12024.442    22.959634    21.178244    21.335113    10374.087    12710.806    12052.633    11309.888    95.361578   -459.67476   -71.218686   -4469.0521 
39433000    131.12669   -6649.9406   -6312.6252   -6649.9406            0    12202.812     22.95401    21.176733    21.329734     10368.19    13791.709    10865.945    11950.781    52.888357   -117.89179    255.34957   -4467.4451 
39434000    134.99969   -6662.9274   -6315.6489   -6662.9274            0    11191.495    23.024859    21.293425    21.215987    10401.734    12052.904    10757.985    10763.596    -560.8073   -243.92175   -1150.9571   -4617.9146 
39435000    135.72032   -6647.7477   -6298.6154   -6647.7477            0    10151.206    23.071563    21.177181    21.354388    10433.555    10459.891    10896.009    9097.7187   -690.24623    230.64396   -675.59827   -4753.9805 
39436000    138.85079   -6645.2895   -6288.1043   -6645.2895            0    12167.128    23.170086    21.032223    21.331017    10394.998     11280.78    12495.316    12725.288     818.8775   -368.23251    292.99286   -4443.5631 
39437000    133.12947   -6662.6521   -6320.1846   -6662.6521            0    11908.398    22.982083    21.206057    21.317386    10389.228    12509.929    11964.965      11250.3   -479.25122   -515.81262   -317.36029   -4515.8691 
39438000    137.33981   -6630.6186   -6277.3203   -6630.6186            0     12627.21    23.017342    21.185507    21.238588    10356.659    11837.802    12177.685    13866.142    263.23373    1150.5947    947.03737   -4370.0908 
39439000    130.10818   -6663.1481   -6328.4527   -6663.1481            0    11084.199    22.968064    21.095115    21.472603    10403.776    11605.435    11283.842    10363.319    3.3015793    1181.0699    672.74129    -4646.665 
39440000    138.57124   -6626.3235   -6269.8574   -6626.3235            0     11536.67    23.193356     21.14498    21.201421    10397.665    10743.506    11640.006    12226.499     522.0525   -286.19761    333.58162    -4520.445 
39441000    135.98555   -6628.4889   -6278.6743   -6628.4889            0    12717.825    23.046791    21.094658    21.322089    10366.036    12416.085    12278.521     13458.87    140.97841    642.94016    99.336465   -4356.0189 
39442000    135.99812   -6644.1336   -6294.2867   -6644.1336            0    10904.891    22.984479    21.313452    21.231892    10401.049    10694.327    10837.983    11182.364    551.12236     1388.083   -482.04974   -4640.1387 
39443000    134.75618   -6664.6839   -6318.0319   -6664.6839            0     9493.591    23.009564    21.307838    21.324514    10455.069    9102.5469    9873.8013    9504.4248   -532.95222    180.15125   -218.22032   -4870.4827 
39444000     133.0067   -6637.1573   -6295.0057   -6637.1573            0    12140.565    22.946761    21.223033    21.300982    10373.576    12460.112    11697.533    12264.048    1244.2184    257.56151     242.9799   -4458.2845 
39445000    135.80114   -6637.5427   -6288.2025   -6637.5427            0    11714.935    23.018888    21.142848    21.326678    10379.371    11614.729    11711.223    11818.853    799.20487    149.94156   -520.69725   -4514.8837 
39446000    135.81541   -6656.1003   -6306.7235   -6656.1003            0    11531.014     23.15215    21.167733    21.201261    10390.282    11103.771    10765.367    12723.905   -1143.0786    830.22095    187.53877   -4559.4103 
39447000    135.21559   -6649.5981   -6301.7642   -6649.5981            0    11077.394    23.117885    20.945005    21.497351    10409.108    11253.329    12094.455    9884.3975   -192.83674   -63.549512    123.10161   -4620.1475 
39448000    137.65014   -6646.0505   -6291.9539   -6646.0505            0    11978.714    23.106435    21.165936    21.225645    10380.812    11623.254    11646.684    12666.205    40.211039   -149.74836      250.343   -4478.4545 
39449000    140.40791    -6647.784   -6286.5931    -6647.784            0    12348.763    22.929497    21.242985      21.2796    10365.101    13530.256    11770.662    11745.373   -673.06734   -610.00611    -245.5231   -4419.9001 
39450000    134.33068     -6661.58   -6316.0225     -6661.58            0    11088.936     22.98402    21.133781    21.433779    10411.228    12106.413    11147.287    10013.107    1105.6918    19.239285   -615.47098   -4632.3109 
39451000    138.16371   -6657.0973   -6301.6795   -6657.0973            0     11147.85    23.072231    21.322121     21.16765    10413.402    11199.385    11320.055     10924.11   -1365.6197    1023.7163   -867.81667    -4608.669 
39452000    140.44319   -6659.5522   -6298.2706   -6659.5522            0    12000.814    23.016702    21.140022    21.326788    10377.052     11911.84    12247.191    11843.409    358.08461   -438.19197   -781.37592   -4482.0836 
39453000    127.29985   -6652.9129   -6325.4418   -6652.9129            0    12543.354    23.173416    20.989474    21.286448    10353.682    11746.821    13116.635    12766.606    61.664291    138.29932    646.61938   -4431.4226 
39454000    138.40407   -6660.8602   -6304.8242   -6660.8602            0    11935.222    23.023916    21.145796    21.319478     10379.58    11515.918    11566.031    12723.716   -642.93932    397.27427    889.85946   -4498.1237 
39455000    134.87119   -6658.8016   -6311.8537   -6658.8016            0    11622.767     22.91022    21.266344    21.344494    10399.392     12118.18    11344.993    11405.127    202.38783    909.79492    -376.4092   -4549.0929 
39456000    136.44453   -6669.3718   -6318.3766   -6669.3718            0    12036.886    23.004149    21.269489    21.175575    10360.923    12251.182    10763.595     13095.88    73.847848   -11.442368    398.25657   -4499.5619 
39457000    131.94605   -6655.6739   -6316.2508   -6655.6739            0    11338.231    23.060414    21.112368    21.351778    10395.326    11674.372    11034.264    11306.059      631.715   -94.174814    564.38444   -4597.3164 
39458000    133.65391   -6644.7379   -6300.9214   -6644.7379            0    11803.753    23.142572    21.091813    21.282204    10388.244    11234.236    12501.858    11675.165    1032.7668   -454.80247     527.2191   -4512.6306 
39459000    136.12973   -6638.5238   -6288.3383   -6638.5238            0    12598.627    23.127096    20.970829    21.372045    10365.321    11367.655    14842.723    11585.503    940.41371    353.35384   -520.63033   -4383.8345 
39460000    136.47094    -6652.973   -6301.9098    -6652.973            0    12603.614    22.922479    21.188411    21.321509    10355.663    11880.801    12622.069    13307.971   -581.66589    1475.1644    763.91099   -4398.4273 
39461000    137.07198   -6650.1105   -6297.5012   -6650.1105            0    11377.058    23.063994    21.225713    21.290193    10422.607    12110.769    11235.239    10785.166    94.765444    -709.9402   -820.79995   -4568.1538 
39462000    134.01296   -6650.9554   -6306.2153   -6650.9554            0    12314.972    22.978978        21.17     21.31134     10367.22    12644.254    13556.821    10743.843    1046.7397    212.08876   -1105.4551   -4444.2496 
39463000     130.1925    -6644.162   -6309.2498    -6644.162            0    11069.781    23.073885    21.145764    21.346409    10415.232    10451.332    12994.764    9763.2461     793.5508    30.930263    204.82711   -4627.8002 
39464000     137.7949   -6657.8112   -6303.3422   -6657.8112            0    11478.252    23.177647    21.090804    21.318118    10421.047    10791.808    11915.178     11727.77   -536.00389   -132.01717    -714.5004   -4558.8743 
39465000    133.73649   -6658.0918   -6314.0628   -6658.0918            0    13123.518    23.007701    21.029039    21.355474    10332.415    12996.001    13188.444    13186.108   -885.32481   -774.96739   -243.47157   -4336.5104 
39466000    129.88873   -6636.5955   -6302.4647   -6636.5955            0    12581.384    22.970307    21.248425    21.268414    10380.748    11598.283    13134.263    13011.604    1274.5598     653.6806   -190.55108   -4397.7368 
39467000    133.75168   -6655.6753   -6311.6073   -6655.6753            0    11237.285    23.040621    21.167127    21.362308    10418.478    10522.366    11089.595    12099.894    425.10964    532.14872    590.48878   -4604.1826 
39468000    136.07301    -6638.189   -6288.1495    -6638.189            0    11983.689    22.975332      21.2842    21.237011    10385.144     12070.49    11115.346    12765.231    628.79049   -325.22016    331.19209   -4473.1397 
39469000    134.57931   -6660.2548   -6314.0577   -6660.2548            0    11029.048    23.079724     21.14222    21.362389    10423.919    11317.178    11461.485    10308.481   -589.69017   -667.30153   -196.22921    -4637.398 
39470000    132.64066   -6670.1867   -6328.9767   -6670.1867            0    10908.884    23.183077    20.919254    21.483015    10418.675    9729.4373    12349.974    10647.239    20.756886      858.505   -9.3892651   -4671.4188 
39471000    131.40087   -6645.5528   -6307.5321   -6645.5528            0    11852.481    23.073481    21.235525    21.183136     10379.26    11213.586    12068.264    12275.592   -41.771939    -361.8956   -118.18241   -4513.4119 
39472000    136.38484   -6662.5384   -6311.6967   -6662.5384            0    11801.016    23.024309    21.153156    21.309215    10378.372    11115.882    10914.365    13372.801     1018.017    500.62597    135.64303   -4525.5196 
39473000    134.64413   -6659.9936   -6313.6298   -6659.9936            0    11892.799    22.958368    21.209463    21.299631    10371.528    13018.814    10650.049    12009.534   -97.169364    -649.8216    406.56299   -4514.7475 
39474000    144.71265    -6656.281   -6284.0165    -6656.281            0    11924.102    22.937276    21.314834    21.235183    10381.971    12107.505    12077.347    11587.454   -702.12253    473.00629   -857.93975   -4478.5835 
39475000    134.31741   -6660.7694    -6315.246   -6660.7694            0    11092.162    23.121473    21.077009    21.345501    10402.335    10576.775    11280.186    11419.524    319.51721   -36.509716   -703.50964   -4632.4831 
39476000    129.36521   -6631.7382   -6298.9541   -6631.7382            0    12412.338    23.032338     21.12101    21.298217    10360.864    12508.974    12476.102    12251.939   -278.72708   -721.79567    358.33469   -4423.4179 
39477000     144.8904   -6636.8135   -6264.0918   -6636.8135            0    12438.037    23.203925    20.921097    21.350678    10364.721    10734.909     14172.49    12406.713    277.84216    166.28759    -666.8698   -4383.9728 
39478000    137.93752   -6634.1801   -6279.3443   -6634.1801            0    12147.063    23.020003    21.179442    21.287836    10378.902    12031.331    11775.408     12634.45    161.79576   -155.57741    261.98752   -4440.6963 
39479000    136.37848   -6641.8536   -6291.0282   -6641.8536            0    12832.208    22.925302    21.288457    21.238204    10365.185    13960.458    11214.033    13322.132   -218.61164   -578.24584   -42.244832   -4351.2399 
39480000    138.56645   -6635.8431   -6279.3894   -6635.8431            0    12154.197    22.920639    21.252193     21.33249    10391.351    12166.632    12365.773    11930.186   -639.21418    1872.0156    300.81886   -4437.4549 
39481000    134.64045   -6628.8626   -6282.5083   -6628.8626            0    11279.262    23.014451    21.172067    21.348093    10402.146    11987.609     11139.33    10710.848    263.54053     365.9242     1.076538   -4571.3919 
39482000    140.68872   -6662.9645   -6301.0513   -6662.9645            0    10836.466    23.172168     21.08093    21.335815     10422.35    10560.932    11297.808    10650.658    -368.3976    496.93012    99.100051   -4653.9161 
39483000    135.26605   -6655.4967    -6307.533   -6655.4967            0    11850.311     23.19508    21.016779    21.286922    10377.074    10923.249     12019.21    12608.473   -58.097052   -178.64446     12.95477   -4514.1191 
39484000    133.71247   -6648.7602    -6304.793   -6648.7602            0     11138.37    23.027854    21.193683     21.34607    10417.843    10956.607      11803.1    10655.404    411.48771   -256.24796    77.619755   -4612.5008 
39485000    136.50983   -6655.5565   -6304.3933   -6655.5565            0    11516.407    22.952664    21.296934    21.246144    10385.569     12153.64    10832.667    11562.915   -530.42408    35.055598   -1070.9884   -4560.0853 
39486000    134.07584   -6650.4372   -6305.5353   -6650.4372            0    10589.614    22.935502    21.283328    21.309833    10402.263    11307.937    10364.051    10096.854   -1126.9512    1035.0081    4.5270796   -4699.0237 
39487000    129.71545   -6645.7688   -6312.0838   -6645.7688            0    12512.192    23.019753    21.114895    21.347443    10376.131    12957.906    13108.174    11470.496    422.81663   -474.27862   -726.31313   -4418.6734 
39488000    139.44567   -6644.4869   -6285.7714   -6644.4869            0    11845.343    23.299029    21.049445    21.211806     10402.94    10151.601    13078.082    12306.345    827.38403   -350.32941   -491.34302   -4488.6408 
39489000    132.27334   -6648.6636   -6308.3985   -6648.6636            0    11871.273    23.026207    21.065256    21.466496    10412.387    11799.056    12528.847    11285.915   -110.62492   -656.52763    752.92022   -4505.6984 
39490000    137.73983   -6638.9897   -6284.6624   -6638.9897            0     13348.01    22.965773    21.190103    21.255723    10344.036    14078.612    12678.026    13287.392   -30.769213   -982.96505   -40.393223   -4271.0197 
39491000    132.40261   -6648.7279   -6308.1303   -6648.7279            0    11681.476     22.96075    21.246405    21.291768    10386.835    11065.463     12771.78    11207.186    486.58386    1345.1639   -231.01781   -4538.6046 
39492000    133.91113   -6650.3872    -6305.909   -6650.3872            0    12026.066    22.809702     21.25164    21.418955    10382.701    12348.286    11470.291    12259.622   -911.29717    1099.9435    598.82344   -4484.9096 
39493000     137.3041   -6638.3215    -6285.115   -6638.3215            0    13074.869    23.140997    21.095655    21.178062    10338.589    12240.553    13283.871    13700.182   -123.53315    818.40011    707.53488   -4313.7162 
39494000     134.8441   -6649.5313    -6302.653   -6649.5313            0    11696.527    23.162243     21.05239     21.30414    10388.337    9922.3791    13009.535    12157.666    10.457959   -125.08753   -1012.6485   -4530.5913 
39495000    143.98445     -6646.07   -6275.6788     -6646.07            0     12174.74    23.070797     21.07926    21.344514    10380.164    12653.543    12185.289    11685.388    683.68737    616.36544    871.63966   -4432.6173 
39496000    132.34476   -6658.7151   -6318.2662   -6658.7151            0     10314.78    23.029164    21.255652     21.32157    10436.907    9513.8344    9975.9751    11454.529    70.154033    1339.8026    668.71103   -4748.2374 
39497000    133.81212   -6645.0185   -6300.7949   -6645.0185            0    11173.712    22.985832    21.255235    21.303903    10408.432    11638.287    10331.207    11551.643   -265.57162    114.49558   -177.56087   -4604.6667 
39498000    139.33518   -6657.5393   -6299.1081   -6657.5393            0     10795.07    23.088659    21.161744    21.276475    10395.607    10763.261    11580.146    10041.802   -970.17188    891.82724   -860.70645   -4662.4755 
39499000    131.19788   -6651.9587   -6314.4602   -6651.9587            0    11416.804    23.047012    21.148445    21.369558    10415.704    11491.157    12086.678    10672.578   -361.22583   -721.48185   -160.94684   -4580.2207 
39500000    142.36687    -6639.858   -6273.6279    -6639.858            0    11994.296    23.177194     21.09374    21.264569    10396.114    11809.946     11982.54    12190.403   -322.92139   -270.62877    874.69558   -4455.0928 
Loop time of 480.071 on 64 procs for 250000 steps with 1296 atoms

Performance: 89.987 ns/day, 0.267 hours/ns, 520.757 timesteps/s
99.1% CPU use with 64 MPI tasks x 1 OpenMP threads

MPI task timing breakdown:
Section |  min time  |  avg time  |  max time  |%varavg| %total
---------------------------------------------------------------
Pair    | 31.029     | 42.105     | 53.133     | 109.0 |  8.77
Bond    | 0.27873    | 0.2852     | 0.29543    |   0.6 |  0.06
Kspace  | 224.96     | 236.6      | 248.13     |  46.4 | 49.28
Neigh   | 1.816      | 1.8525     | 1.8911     |   1.5 |  0.39
Comm    | 89.105     | 90.579     | 92.58      |   9.2 | 18.87
Output  | 0.60984    | 0.61099    | 0.61248    |   0.0 |  0.13
Modify  | 95.238     | 98.332     | 100.9      |  23.3 | 20.48
Other   |            | 9.705      |            |       |  2.02

Nlocal:        20.2500 ave          27 max          14 min
Histogram: 8 3 7 10 2 3 18 8 3 2
Nghost:        2700.14 ave        2729 max        2664 min
Histogram: 1 2 4 7 6 16 16 5 4 3
Neighs:        6719.97 ave        9024 max        4634 min
Histogram: 8 3 11 6 2 3 18 8 3 2

Total # of neighbors = 430078
Ave neighs/atom = 331.85031
Ave special neighs/atom = 2.0000000
Neighbor list builds = 3427
Dangerous builds = 0

unfix		3
unfix		2
unfix		1

write_data	data.final.${pid}
write_data	data.final.0
System init for write_data ...
PPPM initialization ...
  extracting TIP4P info from pair style
  using 12-bit tables for long-range coulomb (../kspace.cpp:340)
  G vector (1/distance) = 0.37110404
  grid = 27 36 32
  stencil order = 5
  estimated absolute RMS force accuracy = 0.0037751956
  estimated relative force accuracy = 1.1368889e-05
  using double precision FFTW3
  3d grid and FFT values/proc = 4590 540
Last active /omp style is kspace_style pppm/tip4p/omp
WARNING: Not all mixed pair coeffs generated from mixing. Use write_data with 'pair ij' option to store all pair coeffs. (../write_data.cpp:312)

write_restart   restart.lmp.${pid}
write_restart   restart.lmp.0
System init for write_restart ...
PPPM initialization ...
  extracting TIP4P info from pair style
  using 12-bit tables for long-range coulomb (../kspace.cpp:340)
  G vector (1/distance) = 0.37110404
  grid = 27 36 32
  stencil order = 5
  estimated absolute RMS force accuracy = 0.0037751956
  estimated relative force accuracy = 1.1368889e-05
  using double precision FFTW3
  3d grid and FFT values/proc = 4590 540
Last active /omp style is kspace_style pppm/tip4p/omp
Total wall time: 0:08:00
