LAMMPS data file via write_data, version 30 Jul 2021, timestep = 31000000

1920 atoms
2 atom types
1280 bonds
1 bond types
640 angles
1 angle types

0.01097635786650919 24.719024642127877 xlo xhi
-0.024480156132263176 24.754481156122957 ylo yhi
0.05547311371388375 22.754526886290098 zlo zhi

Masses

1 1.008
2 15.999

Pair Coeffs # lj/cut/tip4p/long/omp

1 0 0
2 0.21084 3.1668

Bond Coeffs # harmonic/omp

1 450 0.9572

Angle Coeffs # harmonic/omp

1 55 104.52

Atoms # full

1 1 2 -1.1794 4.56982056070953 1.2687052217955028 4.218181248496585 0 0 0
2 1 1 0.5897 4.600116214062486 2.0268700658455474 4.801704792987193 0 0 0
3 1 1 0.5897 5.33883166034225 1.3670699936456805 3.656805584246852 0 0 0
4 2 2 -1.1794 3.015253640819915 1.2031896360755459 1.942049985284003 0 0 0
5 2 1 0.5897 3.3912219399551318 1.146182804820591 2.820452742270993 0 0 0
6 2 1 0.5897 2.070769543236904 1.2559232873283248 2.088217279219983 0 0 0
10 4 2 -1.1794 3.354644050706555 4.726861004352958 3.525488813230289 0 0 0
11 4 1 0.5897 2.780763511663808 5.379757608029423 3.9262499755458227 0 0 0
12 4 1 0.5897 2.951248731462517 4.540886246079267 2.677619996358172 0 0 0
13 5 2 -1.1794 1.5694010029230425 2.851546494076605 4.858543273240012 0 0 0
14 5 1 0.5897 2.351250418963415 3.2867294714808355 4.518638165975105 0 0 0
15 5 1 0.5897 1.8368345325933395 1.9410327190338497 4.983821532189724 0 0 0
22 8 2 -1.1794 1.7049037711867563 4.351582731869486 1.4072464819587958 0 0 0
24 8 1 0.5897 1.5901261170846819 5.069712283964791 0.7848786006819826 0 0 0
23 8 1 0.5897 1.0301797242717428 4.4983636492292725 2.070117278790707 0 0 0
20 7 1 0.5897 3.89116727575287 2.6968831640502398 1.175047601558993 0 0 0
9 3 1 0.5897 5.02561568387957 4.631597601518971 3.454284930768793 0 0 0
19 7 2 -1.1794 4.695118580070432 3.1376553098701288 0.9001135353496184 0 0 0
21 7 1 0.5897 5.3967288185476185 2.6435905784780545 1.3242035804411991 0 0 0
27 9 1 0.5897 4.626858520454367 4.948535324832521 0.8522768613867088 0 0 0
28 10 2 -1.1794 1.724178119848492 -0.0025661606741698845 4.966557488681078 0 0 0
7 3 2 -1.1794 5.982421644444358 4.604995625169843 3.451096217246626 0 0 0
98 33 1 0.5897 0.4574876683152441 5.420525357410884 3.8835499697279565 1 0 0
16 6 2 -1.1794 0.3407815594335682 1.3926571414686781 1.8714114759646017 0 0 0
99 33 1 0.5897 0.2508535585464815 3.9238802436053173 3.787128989269169 1 0 0
867 289 1 0.5897 4.719818964089977 0.15452017826978995 5.677495181527751 0 1 0
25 9 2 -1.1794 4.660953421133321 5.895705918149865 0.718255326369931 0 0 0
387 129 1 0.5897 4.1989873801879165 0.1402200843957313 1.2327650193965247 0 1 0
47 16 1 0.5897 6.104849868572694 0.6592262734815607 1.6950004446848417 0 0 0
8 3 1 0.5897 6.243287571344078 5.277350433091149 4.080467992226234 0 0 0
46 16 2 -1.1794 6.443306827795075 1.402644173512602 2.1940042966254274 0 0 0
77 26 1 0.5897 12.243290241374037 0.7320295250099432 1.7314287460307662 0 0 0
31 11 2 -1.1794 10.69194049382603 1.4704513265782528 4.316871247186379 0 0 0
32 11 1 0.5897 10.756331301986396 2.2642441665875848 4.847894131602312 0 0 0
34 12 2 -1.1794 9.135446174689461 1.3075200927009896 1.994632007876595 0 0 0
36 12 1 0.5897 9.563884965623796 2.041745299573696 1.554653454188889 0 0 0
39 13 1 0.5897 11.15788450421276 4.637260031275608 3.791456842343917 0 0 0
40 14 2 -1.1794 9.351560138158058 4.623865094864312 3.7496756346315308 0 0 0
41 14 1 0.5897 9.10027917269662 4.615354756555609 2.8261075073226443 0 0 0
42 14 1 0.5897 8.790042579742765 3.9644647213768183 4.157241600848695 0 0 0
43 15 2 -1.1794 7.6239526815544405 2.831651551628541 4.990609377601236 0 0 0
45 15 1 0.5897 6.9218469068278745 3.2439078191181614 4.487321944394657 0 0 0
48 16 1 0.5897 7.392917367180053 1.2825888923522646 2.1890961976548198 0 0 0
49 17 2 -1.1794 10.861079147069121 3.1861503679272007 0.9261240403935437 0 0 0
52 18 2 -1.1794 7.873284885738403 4.709380901601922 1.4674277110739191 0 0 0
53 18 1 0.5897 7.765888111444311 3.9748832580948505 0.8631048604054578 0 0 0
54 18 1 0.5897 7.103012306571417 4.668437077036181 2.0341761437474553 0 0 0
35 12 1 0.5897 9.564971173565164 1.2556705733176856 2.8484540487847316 0 0 0
33 11 1 0.5897 10.591642405857346 0.7630444808095928 4.953849016150335 0 0 0
59 20 1 0.5897 7.620530015621664 1.0909766761696387 5.009925897831362 0 0 0
50 17 1 0.5897 11.531938198303544 2.7138978853516034 1.419209580913049 0 0 0
56 19 1 0.5897 10.795842024641107 4.924827680987984 0.8374512391251487 0 0 0
78 26 1 0.5897 12.120503173051594 1.3595923758737785 3.1036192916516177 0 0 0
58 20 2 -1.1794 7.47288746555554 0.15349112324954609 4.885136189800214 0 0 0
37 13 2 -1.1794 12.110427437772286 4.585407602784546 3.712888243208707 0 0 0
416 139 1 0.5897 10.15280400748949 0.18325846565289688 1.0495695403071104 0 1 0
55 19 2 -1.1794 10.773228003416973 5.880322072897653 0.7848066423321743 0 0 0
180 60 1 0.5897 8.209898754375754 5.922985571396183 4.433640018869611 0 0 0
1619 540 1 0.5897 7.797502938312737 6.034765178841017 0.1562908069409627 0 0 1
150 50 1 0.5897 1.8343680759701664 6.028654027444537 5.767015440893957 0 0 0
496 166 2 -1.1794 0.13781085001631074 1.5570688970428312 7.8461314646519815 0 0 0
578 193 1 0.5897 0.23746227870018372 3.625409632589107 9.598595056010385 1 0 0
527 176 1 0.5897 5.819938734821015 0.8122217618309404 7.569627624850201 0 0 0
494 165 1 0.5897 1.382397068113031 1.859106380125018 10.61603801290058 0 0 0
504 168 1 0.5897 1.5431535679798614 3.9092520226739103 6.399146768197223 0 0 0
501 167 1 0.5897 4.354381751053925 4.115754219845489 6.285622162619957 0 0 0
499 167 2 -1.1794 4.550384188940615 3.179371277405975 6.253674145201399 0 0 0
483 161 1 0.5897 4.673646410009626 2.31921055855987 10.682891235886741 0 0 0
492 164 1 0.5897 2.8001628101363596 3.9137848459087468 9.714757191547413 0 0 0
493 165 2 -1.1794 1.6814662624785168 2.7639109660743246 10.525848949306624 0 0 0
491 164 1 0.5897 2.7023096439424683 4.655739210518569 8.39879414156587 0 0 0
485 162 1 0.5897 3.2290129815382196 1.5507918783674237 8.669068956794622 0 0 0
481 161 2 -1.1794 4.629823706216412 1.6004584765299312 10.052256685841012 0 0 0
482 161 1 0.5897 5.360246352830067 1.7606111077083757 9.454736872221893 0 0 0
502 168 2 -1.1794 1.6446157362344438 4.653579248063577 6.992366876432304 0 0 0
500 167 1 0.5897 3.8927819134470183 2.77702902123995 6.821022517368413 0 0 0
490 164 2 -1.1794 3.1856423279676425 4.64014981370208 9.22483298066664 0 0 0
503 168 1 0.5897 0.9453053137084496 4.54398920487222 7.636687682561697 0 0 0
498 166 1 0.5897 1.0893369415482503 1.4784782344465455 7.77817674107586 0 0 0
484 162 2 -1.1794 2.849417875267182 1.5464704955220852 7.790387174983596 0 0 0
489 163 1 0.5897 4.9758691074304195 4.667595673701714 9.273004786126048 0 0 0
486 162 1 0.5897 3.239511927256281 0.7833054599425376 7.364197222523025 0 0 0
487 163 2 -1.1794 5.929194291294738 4.71633886427564 9.202361247357654 0 0 0
528 176 1 0.5897 5.835381742347435 2.2990249155568736 7.2848096321663 0 0 0
629 210 1 0.5897 2.0824087347163123 5.956550084182481 10.082632529224714 0 0 0
505 169 2 -1.1794 4.628730079929965 5.969477593332599 6.424784448818836 0 0 0
579 193 1 0.5897 0.23037099767339678 5.138023636498597 9.661032732525605 1 0 0
508 170 2 -1.1794 1.099530506584277 0.02436824140196165 10.65027717934496 0 0 0
1347 449 1 0.5897 4.582429957592374 0.44903295061276405 11.373254547980922 0 1 0
495 165 1 0.5897 1.5800121715221138 3.1385613551473694 11.400808583303427 0 0 0
1010 337 1 0.5897 10.647953683561822 2.8736224950065905 11.281510484862764 0 0 0
44 15 1 0.5897 7.603952999621744 3.2754767674358973 5.838443795977625 0 0 0
514 172 2 -1.1794 8.989960319217397 1.705299659650002 7.866616240507592 0 0 0
526 176 2 -1.1794 6.286360774825457 1.619597885865935 7.786030115794227 0 0 0
521 174 1 0.5897 9.0577854466752 5.205613674990047 9.85300208667727 0 0 0
532 178 2 -1.1794 7.815833034543735 4.501521572897472 7.134576252911691 0 0 0
530 177 1 0.5897 10.1047826289206 2.9332211038356686 7.067397652879872 0 0 0
520 174 2 -1.1794 9.401762938953079 4.505812292002224 9.29785953252247 0 0 0
534 178 1 0.5897 7.017193341745113 4.614262682761502 7.649997606638749 0 0 0
516 172 1 0.5897 9.365541856261734 0.9724458171509672 7.378668853865004 0 0 0
1377 459 1 0.5897 10.979987748881443 0.3500077420147724 11.251185492710583 0 1 0
535 179 2 -1.1794 10.605053976892737 6.137729472726796 6.564784197058607 0 0 0
517 173 2 -1.1794 12.137316253893916 4.620867841752049 9.187701613765354 0 0 0
533 178 1 0.5897 7.74621059304449 5.154542225246462 6.438202914186989 0 0 0
522 174 1 0.5897 8.932945182665676 4.604498721160819 8.469205623320219 0 0 0
558 186 1 0.5897 12.047959272957698 2.0231777152449513 7.272475557228598 0 0 0
512 171 1 0.5897 9.962706621188854 1.775794778405053 9.469909053419824 0 0 0
515 172 1 0.5897 8.04360950731966 1.5780762277733433 7.800026775329546 0 0 0
488 163 1 0.5897 6.245398678169061 3.9594263346871545 9.69564439625103 0 0 0
524 175 1 0.5897 8.174556321000667 3.4165887246572906 10.164084920315512 0 0 0
519 173 1 0.5897 11.189981635306658 4.485518014100716 9.20855020855621 0 0 0
538 180 2 -1.1794 7.531360504840251 0.295281380105778 10.638006210609907 0 0 0
659 220 1 0.5897 7.017714910049217 6.050591257499524 10.24155691766503 0 0 0
513 171 1 0.5897 11.431955616245153 1.411395986286649 9.4515596380484 0 0 0
529 177 2 -1.1794 10.718658206601736 3.2742844209533812 6.416987710523882 0 0 0
523 175 2 -1.1794 7.471718371644608 3.02161554494908 10.680049080509107 0 0 0
531 177 1 0.5897 10.600631163396702 4.223611303066811 6.4501997343048565 0 0 0
525 175 1 0.5897 7.627224201008943 2.0793113983758147 10.615781144616772 0 0 0
511 171 2 -1.1794 10.706505871874176 1.6010906973264565 10.04648434309707 0 0 0
896 299 1 0.5897 11.366984795518182 -0.02141808502181064 7.048417706130037 0 1 0
961 321 2 -1.1794 4.53796905506135 1.3601587169267246 15.64240279414636 0 0 0
962 321 1 0.5897 5.212749929837628 1.4720923103579033 14.972824145453806 0 0 0
963 321 1 0.5897 4.870152518854084 0.6590311924468821 16.203025600858588 0 0 0
964 322 2 -1.1794 2.7823908679083234 1.4632572129650605 13.431630999726714 0 0 0
965 322 1 0.5897 3.1359500308995156 1.394907002245763 14.318488342217918 0 0 0
966 322 1 0.5897 1.8341727249141946 1.508753130454123 13.554145876143023 0 0 0
970 324 2 -1.1794 3.1015270554933267 4.804561358457497 14.903302242815608 0 0 0
971 324 1 0.5897 4.0497585010232156 4.67962187498454 14.941299316804782 0 0 0
972 324 1 0.5897 2.7407300128204386 4.04267926790803 15.356724136486035 0 0 0
973 325 2 -1.1794 1.6017159042354294 3.0016417806733515 16.35036749664203 0 0 0
975 325 1 0.5897 0.9593726435085135 3.4836728381241757 15.829550521996133 0 0 0
982 328 2 -1.1794 1.3660262290909122 4.42014555138245 12.642826483712188 0 0 0
983 328 1 0.5897 1.3910578680247399 5.170258202025508 12.048742878451762 0 0 0
984 328 1 0.5897 2.0678071517288794 4.58849376423925 13.271601927248964 0 0 0
980 327 1 0.5897 3.7119439576440723 2.7910452861185746 12.493731200593993 0 0 0
981 327 1 0.5897 5.222368162059223 2.8808075591332885 12.54236244709186 0 0 0
979 327 2 -1.1794 4.449859879496517 3.311871444948086 12.17681819853203 0 0 0
990 330 1 0.5897 1.4003511495837782 1.1413892460357387 16.307340178562036 0 0 0
986 329 1 0.5897 4.387686602776681 5.1437975512402385 12.299335889140277 0 0 0
1109 370 1 0.5897 0.5559480512029622 6.103164729438563 15.783935392352365 0 0 0
967 323 2 -1.1794 5.773628697869551 4.488707336836693 14.932141537260703 0 0 0
1110 370 1 0.5897 2.0660505152766477 5.9982359806651 15.76407595936934 0 0 0
1008 336 1 0.5897 5.887404343049187 0.8769113556430381 13.004959472883789 0 0 0
985 329 2 -1.1794 4.511406222150028 6.088123760770466 12.203447253270564 0 0 0
1058 353 1 0.5897 0.0844370509063258 4.484251816501765 14.062001314301812 1 0 0
988 330 2 -1.1794 1.341456409972019 0.206625185947326 16.10986400603173 0 0 0
1346 449 1 0.5897 3.877579331813636 0.3298616183857877 12.707713296008558 0 1 0
1460 487 1 0.5897 4.4229622201940835 2.5854583911020526 17.049095698363292 0 0 0
969 323 1 0.5897 6.045460320877728 3.616044121763572 15.216421360719398 0 0 0
1006 336 2 -1.1794 6.207825946805188 1.61316481257433 13.526009419876823 0 0 0
968 323 1 0.5897 6.204266809570433 5.085496062147094 15.54419476519671 0 0 0
1038 346 1 0.5897 12.137347324124521 0.9557723964132568 13.10167042227208 0 0 0
1017 339 1 0.5897 10.821924944468451 5.142099452179326 12.137704111914092 0 0 0
991 331 2 -1.1794 10.491603268796343 1.5875043845895942 15.59521748589717 0 0 0
992 331 1 0.5897 11.270347145339223 1.6555821355273628 15.042842671097725 0 0 0
993 331 1 0.5897 10.633336636630496 0.7951639575587747 16.113236489431078 0 0 0
994 332 2 -1.1794 8.980828747277275 1.3691028132658045 13.282306449309267 0 0 0
995 332 1 0.5897 9.35959644523786 2.1555189515903797 12.889473559369483 0 0 0
998 333 1 0.5897 11.220050412539715 4.4335287249707855 14.896718983684279 0 0 0
1000 334 2 -1.1794 9.395122495029394 4.458234990272067 15.045621411362196 0 0 0
1001 334 1 0.5897 8.98068719369536 3.688532994960284 15.435547218708622 0 0 0
1002 334 1 0.5897 8.922287925676946 4.595433590929058 14.224769204993235 0 0 0
1003 335 2 -1.1794 7.61101041532636 2.689626143339715 16.20482109029574 0 0 0
1004 335 1 0.5897 7.60917356053192 1.7419955098120417 16.339892944649097 0 0 0
1007 336 1 0.5897 7.160777648665387 1.5260128772192696 13.503977203416628 0 0 0
1012 338 2 -1.1794 7.74482398481404 4.815778905443367 12.953487760926677 0 0 0
1014 338 1 0.5897 7.602005893095957 4.019939072395063 12.441165002821883 0 0 0
1011 337 1 0.5897 11.238454835020503 2.8718098305138087 12.675461672234738 0 0 0
1009 337 2 -1.1794 10.63091699915715 3.3502829842227815 12.111397059479838 0 0 0
996 332 1 0.5897 9.234472352949364 1.4153113120076586 14.204111036675592 0 0 0
1013 338 1 0.5897 7.018831091324449 4.833281339218909 13.577043446905382 0 0 0
997 333 2 -1.1794 12.164786037922324 4.445052686944104 15.050145628513889 0 0 0
1139 380 1 0.5897 8.373942239545396 5.783485102773385 15.999175594952648 0 0 0
1376 459 1 0.5897 10.224526650926807 0.1735750435915847 12.55116748046012 0 1 0
1015 339 2 -1.1794 10.89371381252366 6.074491498446427 11.933389275175402 0 0 0
1018 340 2 -1.1794 7.627323219358702 0.07661363980859422 16.429985544691455 0 0 0
1490 497 1 0.5897 10.71420885392234 2.6596529754436484 16.967720308762505 0 0 0
1138 380 2 -1.1794 7.577808620975784 6.102921669574981 16.423831454031724 0 0 0
660 220 1 0.5897 7.735863512981711 5.969658953324814 11.571788221283356 0 0 0
1497 499 1 0.5897 10.659353417123818 6.124418277662103 17.019162306362997 0 0 0
1468 490 2 -1.1794 1.4678290876350633 -0.006912829000366827 21.955879262944833 0 0 0
974 325 1 0.5897 1.6756915754003978 3.50184369517197 17.163099271633754 0 0 0
1538 513 1 0.5897 0.18725853203038603 3.8317285806063994 20.905601672014473 1 0 0
1539 513 1 0.5897 0.4479939962912404 5.321888228356252 20.963747892429726 1 0 0
1454 485 1 0.5897 2.036679180653568 3.089514882205754 21.384627273339525 0 0 0
1464 488 1 0.5897 0.974546612892378 4.8552391557475785 19.10127490147734 0 0 0
1443 481 1 0.5897 4.729647240840087 2.060430966232226 21.956005330940098 0 0 0
1450 484 2 -1.1794 3.3330717742292895 4.253865317800266 20.633690679514682 0 0 0
1469 490 1 0.5897 1.4230263401749363 0.9468072995617847 22.024159893377952 0 0 0
1442 481 1 0.5897 4.079352221470197 1.297874111038279 20.821343623165344 0 0 0
1453 485 2 -1.1794 1.2613004593993065 2.7152389638756893 21.802850879030636 0 0 0
1444 482 2 -1.1794 3.0162639380549283 1.1835535373692148 19.31452676395256 0 0 0
1463 488 1 0.5897 1.4521774845987014 5.623190475792978 17.88720984833997 0 0 0
1452 484 1 0.5897 3.005820953572915 4.42877053948715 19.751358637581205 0 0 0
1441 481 2 -1.1794 4.891441513119248 1.359805141072692 21.324206945967678 0 0 0
1451 484 1 0.5897 4.276559781732006 4.403662609394778 20.573789532323598 0 0 0
1445 482 1 0.5897 2.0615811024988577 1.2033998421705643 19.248330329617552 0 0 0
1446 482 1 0.5897 3.3053172379879387 1.9699487983383104 18.85164122834751 0 0 0
1461 487 1 0.5897 5.27140109962797 2.685581933195906 18.298865961626834 0 0 0
1459 487 2 -1.1794 4.576626148691334 3.134939469726883 17.817646141407497 0 0 0
1462 488 2 -1.1794 1.6575653882134687 4.862514041873661 18.430732321833393 0 0 0
1466 489 1 0.5897 4.583142751471431 4.947299895191555 17.785422034316795 0 0 0
1456 486 2 -1.1794 0.14985363820994338 1.4428414163218801 19.067774798343834 0 0 0
1465 489 2 -1.1794 4.574859493801936 5.9021811847879215 17.719207291582755 0 0 0
1590 530 1 0.5897 2.4626135317855633 5.726481678792217 21.484974778166325 0 0 0
1447 483 2 -1.1794 6.110480855312068 4.644170689748175 20.665471894576726 0 0 0
1487 496 1 0.5897 5.996044580410596 1.330036037926316 19.938205189731658 0 0 0
1488 496 1 0.5897 5.91184302387827 0.7589406353775163 18.5387069339382 0 0 0
1455 485 1 0.5897 1.2275603162247795 3.133015353063879 22.663390296193004 0 0 0
386 129 1 0.5897 5.04841297737917 0.2175072109400836 22.681099093655007 0 1 -1
1588 530 2 -1.1794 1.7168935392527338 6.114243973055365 21.942957523534794 0 0 0
1826 609 1 0.5897 3.942062769139219 -0.016767564158747916 18.21776662335662 0 1 0
51 17 1 0.5897 10.902873221289862 2.8127211958972826 22.744834697974532 0 0 -1
1476 492 1 0.5897 9.42262240319539 0.7550954512697717 18.820233622845944 0 0 0
1005 335 1 0.5897 7.71807751049287 3.056904598680497 17.082228643436487 0 0 0
1491 497 1 0.5897 10.249242397604853 2.6712660718735544 18.408367812362197 0 0 0
1471 491 2 -1.1794 10.969026028325914 1.5837744787803736 21.3240427821071 0 0 0
1482 494 1 0.5897 9.350008107769389 4.582014987950234 19.80533479445847 0 0 0
1484 495 1 0.5897 8.435971244694443 3.2274001001188313 21.610219666681967 0 0 0
1518 506 1 0.5897 12.146883880735142 1.327388980301193 19.986978642658087 0 0 0
1494 498 1 0.5897 7.211777224881945 4.3761751297730935 19.155038497892733 0 0 0
1477 493 2 -1.1794 12.18573256531884 4.485880642490577 20.853243243056294 0 0 0
1486 496 2 -1.1794 6.337349123972654 1.4461150136407823 19.051505499531128 0 0 0
1483 495 2 -1.1794 7.64054198822669 2.8920973492340267 22.023831780613005 0 0 0
1493 498 1 0.5897 7.674877841034467 5.098997233834009 17.90808356737885 0 0 0
1856 619 1 0.5897 11.424566262409066 0.08036409937364855 18.2610802621298 0 1 0
1448 483 1 0.5897 6.5314658883647105 5.333647746439446 21.17890779866397 0 0 0
1474 492 2 -1.1794 9.132880523143486 1.492866744865257 19.356862762913178 0 0 0
1517 506 1 0.5897 12.104466237736965 1.8543512073493684 18.56841287330463 0 0 0
1492 498 2 -1.1794 7.875051827415197 4.347054596124802 18.46552870946118 0 0 0
1495 499 2 -1.1794 10.666935697330159 5.789000114757989 17.915620570865958 0 0 0
1498 500 2 -1.1794 7.823804320414247 0.17925440916164248 21.823521149749066 0 0 0
1620 540 1 0.5897 8.412067864207655 5.773471917790077 21.496725386725135 0 0 0
1485 495 1 0.5897 7.72997676944594 1.9401061509381183 21.97949686625522 0 0 0
1449 483 1 0.5897 6.396201744689388 3.8291531591022845 21.078200788725237 0 0 0
1481 494 1 0.5897 10.410568357479105 4.601353073348167 20.885445809324892 0 0 0
1472 491 1 0.5897 10.917809864635826 0.8481549602789665 21.934346144091993 0 0 0
1473 491 1 0.5897 10.186029037676798 1.4991990902052121 20.78001363716071 0 0 0
1496 499 1 0.5897 10.675272864940748 4.837062517463597 17.815634253981717 0 0 0
1489 497 2 -1.1794 10.910684771421614 3.040839285887921 17.823462930583283 0 0 0
1475 492 1 0.5897 8.177176878373634 1.4438351366031539 19.33631162586561 0 0 0
1480 494 2 -1.1794 9.46475214613045 4.53455255833629 20.75442572798994 0 0 0
121 41 2 -1.1794 4.8187297982507085 7.831640540969723 4.272512419888972 0 0 0
122 41 1 0.5897 4.086444163176061 7.785778785255592 3.6578180019887685 0 0 0
123 41 1 0.5897 5.586315214807577 7.601675500217473 3.7489405521090835 0 0 0
124 42 2 -1.1794 3.1077625718537996 7.708342194525831 2.0862703477943763 0 0 0
125 42 1 0.5897 3.543129293464089 6.960293556657973 1.677482084561826 0 0 0
126 42 1 0.5897 3.6292716006514696 8.465133663500703 1.8188276530883154 0 0 0
129 43 1 0.5897 5.289695456809536 10.743683890179854 3.62287082279271 0 0 0
130 44 2 -1.1794 3.4248329586630293 10.945611280154104 3.440197320646017 0 0 0
132 44 1 0.5897 3.0648406437568134 10.191623222533773 3.907250521428171 0 0 0
133 45 2 -1.1794 1.750600248593231 9.139782578445768 4.845874881123613 0 0 0
135 45 1 0.5897 1.0078295508829849 9.474062861882093 4.343131496957219 0 0 0
137 46 1 0.5897 1.3279703758512509 7.881276960728341 2.3489248572724577 0 0 0
139 47 2 -1.1794 4.879955187423368 9.516286464436995 1.0268077711577648 0 0 0
142 48 2 -1.1794 1.5321159394797506 10.739636832706877 1.4276450525716413 0 0 0
143 48 1 0.5897 2.272540426003788 10.96093090928377 1.9924460247089382 0 0 0
144 48 1 0.5897 1.5793669448663534 11.37248613207802 0.7110630766458854 0 0 0
149 50 1 0.5897 1.75175287391579 7.304166262965291 4.955751998242678 0 0 0
131 44 1 0.5897 3.147459169552072 11.70248634945582 3.956369910050001 0 0 0
140 47 1 0.5897 4.832928712104 10.463323742375213 0.8958146916428017 0 0 0
148 50 2 -1.1794 1.762877130742788 6.350998464581812 4.868580811892537 0 0 0
26 9 1 0.5897 5.430277447664324 6.180348848350506 1.2115294035243496 0 0 0
168 56 1 0.5897 6.1367297103867395 8.294413719299513 1.7316096386697835 0 0 0
507 169 1 0.5897 4.682093349175642 6.4504673816963285 5.598946314775226 0 0 0
621 207 1 0.5897 4.586736228439412 9.03453444646985 5.660527863999055 0 0 0
218 73 1 0.5897 0.3652082445110782 10.888319882452654 2.659410659341948 1 0 0
136 46 2 -1.1794 0.3711892937697594 7.869938080939931 2.323697764032146 0 0 0
270 90 1 0.5897 1.149136970536484 12.112028996409821 4.310440645652615 0 0 0
145 49 2 -1.1794 4.789044181994142 12.327861302652414 0.7197285371428068 0 0 0
134 45 1 0.5897 1.7666395547684408 9.678242048555704 5.637085658942992 0 0 0
217 73 2 -1.1794 0.05686740109204891 10.997773613470963 3.558932327091507 1 0 0
138 46 1 0.5897 0.15320381322281662 7.070158376505713 1.8450860392431443 0 0 0
141 47 1 0.5897 4.714090435976202 9.145584829967158 0.1600496073484443 0 0 0
1574 525 1 0.5897 1.965716547042031 9.358907857277762 0.1268055806782904 0 0 1
127 43 2 -1.1794 6.24221287203349 10.814421702560704 3.56040053383839 0 0 0
128 43 1 0.5897 6.459765772907802 11.589551557102299 4.078161283410068 0 0 0
166 56 2 -1.1794 6.527767180016199 7.480119826139855 2.0482334030827616 0 0 0
151 51 2 -1.1794 11.039659256337178 7.957315429711009 4.484099440068714 0 0 0
152 51 1 0.5897 10.346812466628757 7.812053848481017 3.839849498876017 0 0 0
153 51 1 0.5897 10.95991443130053 7.222340055697904 5.092111761082825 0 0 0
154 52 2 -1.1794 9.207615667502097 7.7412933994295345 2.4904970213033852 0 0 0
155 52 1 0.5897 9.729216286890441 8.427842139150744 2.0747917848438346 0 0 0
156 52 1 0.5897 9.465557829965135 6.937481848462623 2.0392837593732493 0 0 0
158 53 1 0.5897 11.230336413209962 10.995950028934885 3.7620545397568965 0 0 0
160 54 2 -1.1794 9.493583810326955 10.977282177994203 3.845058050544599 0 0 0
161 54 1 0.5897 9.056761762868833 11.002461187659346 2.993737794859393 0 0 0
162 54 1 0.5897 9.148274352959813 10.191516575039959 4.2688193932037395 0 0 0
163 55 2 -1.1794 7.879844299514328 9.146604837829946 5.1277597779034565 0 0 0
164 55 1 0.5897 7.229082490162177 9.603029894390238 4.5944759837675875 0 0 0
167 56 1 0.5897 7.446265671133967 7.6997558541753195 2.204178262909177 0 0 0
169 57 2 -1.1794 10.650514136100043 9.38469959730388 0.9600048901497859 0 0 0
172 58 2 -1.1794 8.010587509122615 10.982062534337832 1.4806112083440426 0 0 0
173 58 1 0.5897 8.101257269810079 10.224874039315935 0.9021016210633482 0 0 0
174 58 1 0.5897 7.167201326525442 10.852957119340148 1.9144622029932346 0 0 0
179 60 1 0.5897 7.760251507243029 7.238752469888622 5.032377580069737 0 0 0
171 57 1 0.5897 10.754347509163706 10.32335879050677 0.8038312181746085 0 0 0
178 60 2 -1.1794 7.598282926557279 6.296033971401502 5.068443855955567 0 0 0
175 59 2 -1.1794 10.989793018989191 12.06383366142727 0.7151179493512393 0 0 0
197 66 1 0.5897 12.054600995505876 8.376402321651831 1.767307015716394 0 0 0
300 100 1 0.5897 8.397695702532454 12.10437255377139 4.644284281590156 0 0 0
57 19 1 0.5897 11.43096946499339 6.171117225914164 1.4164820810056888 0 0 0
198 66 1 0.5897 12.160631814163317 7.707270668775251 3.1211339665359756 0 0 0
650 217 1 0.5897 11.003672287001512 9.287602296655836 5.679118657395017 0 0 0
1739 580 1 0.5897 7.684519266216969 12.323115742627532 0.2172167701703621 0 0 1
157 53 2 -1.1794 12.1811874181885 11.066948109339439 3.8459532022356653 0 0 0
170 57 1 0.5897 10.542634523045749 9.006686502615935 0.0872664547936205 0 0 0
699 233 1 0.5897 0.4765991614529872 10.871869749008445 8.611297200017386 1 0 0
612 204 1 0.5897 2.9721744486893074 11.536512941250065 9.77648828195695 0 0 0
647 216 1 0.5897 5.934721375451269 7.541622288623086 8.701245028807852 0 0 0
624 208 1 0.5897 1.703113137290722 11.585237157108827 6.294817223176192 0 0 0
615 205 1 0.5897 1.1135533239214521 9.3995872119135 10.32560578483222 0 0 0
648 216 1 0.5897 5.894378510132961 6.937271351263088 7.313816301225214 0 0 0
614 205 1 0.5897 2.624629698725555 9.40339397023929 10.233751503469142 0 0 0
603 201 1 0.5897 4.041080678667368 7.509836163141743 9.39210486643165 0 0 0
610 204 2 -1.1794 3.3197168611677292 10.840317058889879 9.219038385671265 0 0 0
601 201 2 -1.1794 4.734679400118796 7.641332674396244 10.038498312993326 0 0 0
619 207 2 -1.1794 4.619226319973201 9.326516999936025 6.57150971601821 0 0 0
630 210 1 0.5897 1.4687880281496752 7.258545512811755 10.551875202539378 0 0 0
611 204 1 0.5897 4.262981871981253 10.851338207970569 9.38128802366141 0 0 0
605 202 1 0.5897 3.1693236148124964 8.401484637318061 7.641145964373449 0 0 0
604 202 2 -1.1794 2.8720830245054874 7.544604397524086 7.947164942604677 0 0 0
622 208 2 -1.1794 1.617527392342537 10.8486556425896 6.900085873627846 0 0 0
602 201 1 0.5897 4.607871769966254 6.936276515401856 10.67335343681699 0 0 0
620 207 1 0.5897 5.264828896449828 8.753012929780269 6.984437831948626 0 0 0
623 208 1 0.5897 2.346043684046113 10.954819753367774 7.511796305105685 0 0 0
606 202 1 0.5897 1.9167781314401973 7.60275258493741 7.932711044230227 0 0 0
613 205 2 -1.1794 1.8970565563076802 9.020563768953092 10.723936422055191 0 0 0
625 209 2 -1.1794 4.637577218780943 12.04975717326005 6.366228104445654 0 0 0
626 209 1 0.5897 4.768384358654598 11.128587406744705 6.591134886124716 0 0 0
698 233 1 0.5897 0.49493676958494676 11.49558536400148 9.99059498640105 1 0 0
616 206 2 -1.1794 0.23911104098168884 7.824228751173332 7.852019826060833 0 0 0
506 169 1 0.5897 3.8756499608953363 6.3506162421571615 6.876239116227372 0 0 0
607 203 2 -1.1794 6.065962698740942 10.787744005104496 9.351669041735672 0 0 0
628 210 2 -1.1794 1.321677665256092 6.3127623546812845 10.541547779413673 0 0 0
1101 367 1 0.5897 4.676308316576042 8.907667921106013 11.34838749808414 0 0 0
697 233 2 -1.1794 0.06136840213677175 10.81784722200053 9.47202776732968 1 0 0
609 203 1 0.5897 6.540024313727958 10.135149309319031 9.867044317383389 0 0 0
608 203 1 0.5897 6.4880259982403015 11.618701092243166 9.56986743343706 0 0 0
637 213 2 -1.1794 12.250906330026588 10.918920525527854 9.334818093438951 0 0 0
640 214 2 -1.1794 9.571152888620347 11.10761414214396 9.330404961154315 0 0 0
299 100 1 0.5897 7.5648141000795714 12.005819687859052 5.904600234590722 0 0 0
537 179 1 0.5897 9.92601596034981 6.671228984609748 6.977700713508688 0 0 0
165 55 1 0.5897 7.794211189015538 9.537309684337222 5.997367520545418 0 0 0
653 218 1 0.5897 7.098779944685 10.588764592249676 7.88603770601091 0 0 0
657 219 1 0.5897 10.992150424630866 11.459998917042126 6.426838485690736 0 0 0
635 212 1 0.5897 9.41969775628604 7.961387864800666 8.715171963928944 0 0 0
632 211 1 0.5897 11.566998590227989 7.884181024631386 9.426261274178398 0 0 0
654 218 1 0.5897 8.594117424291644 10.824764811497856 7.876870194165453 0 0 0
634 212 2 -1.1794 9.063613403548427 8.03840940151519 7.830035125570132 0 0 0
641 214 1 0.5897 10.508512090588342 10.918302498734162 9.288957658937226 0 0 0
536 179 1 0.5897 11.426046136365011 6.474185303121799 6.923912487704851 0 0 0
779 260 1 0.5897 8.43177304523858 12.213908027079288 10.212219754303781 0 0 0
643 215 2 -1.1794 7.956544853928836 9.214045269051342 10.669999281305039 0 0 0
636 212 1 0.5897 8.125254827115569 7.880900456589422 7.93430767749417 0 0 0
658 220 2 -1.1794 7.753212913329288 6.422221994218882 10.728524562076089 0 0 0
678 226 1 0.5897 12.141296603108769 8.336778173753695 7.425545545871999 0 0 0
633 211 1 0.5897 10.774837760242825 7.153185221439955 10.489259324885426 0 0 0
645 215 1 0.5897 7.801134984869165 8.274453365257763 10.766253085454833 0 0 0
646 216 2 -1.1794 6.301559360470231 7.638485280920553 7.822472799178422 0 0 0
631 211 2 -1.1794 10.801126875455996 7.9716957800084645 9.993693758869012 0 0 0
642 214 1 0.5897 9.18637175959552 10.32803690749872 9.730950667282139 0 0 0
649 217 2 -1.1794 11.001203684966981 9.663290044513134 6.559489452347502 0 0 0
651 217 1 0.5897 10.257737723179345 9.247280383603742 6.995839753844398 0 0 0
652 218 2 -1.1794 7.825079946444062 10.819854644549467 7.3069995988099645 0 0 0
1087 363 2 -1.1794 6.127714589735462 10.498287108060886 15.114374821692014 0 0 0
1105 369 2 -1.1794 4.651433536552215 12.313581096674001 12.193858785084844 0 0 0
1179 393 1 0.5897 0.14725652320295177 10.563654214415834 14.198006937353314 1 0 0
1081 361 2 -1.1794 4.798255309696464 7.68898303761334 15.734676316541915 0 0 0
1082 361 1 0.5897 4.918147253651162 8.40894617142897 16.35395426844903 0 0 0
1083 361 1 0.5897 4.824330857140904 6.899953707846798 16.275957317549324 0 0 0
1084 362 2 -1.1794 3.0285775349646844 7.8998665221046975 13.687071135207503 0 0 0
1085 362 1 0.5897 3.5412990956160204 7.836607501049354 14.492868501334025 0 0 0
1086 362 1 0.5897 3.504519160395769 8.532304695722429 13.148811968265685 0 0 0
1089 363 1 0.5897 5.178356094440935 10.506623999080254 15.236214151312376 0 0 0
1090 364 2 -1.1794 3.2629484546823266 10.717122191712406 15.096551193438119 0 0 0
1091 364 1 0.5897 2.8146504978265656 11.54937234260183 15.246984191903499 0 0 0