#include		in.partitions
include		in.temp
variable        temperature equal 110.77
variable	tempDamp equal 100.0
include		in.pressure
variable        pressure equal 8261.2
variable        pressureDamp equal 1000.0 # This is 1 ps
include		in.seed
variable        seed equal 745823

units		real
atom_style	full
read_restart	restart.lmp.${pid}
read_restart	restart.lmp.0
Reading restart file ...
  restart file = 30 Jul 2021, LAMMPS = 30 Jul 2021
  restoring atom style full from restart
  orthogonal box = (0.029415427 0.011485758 -0.038749834) to (24.700586 24.718515 22.848750)
  2 by 4 by 2 MPI processor grid
  restoring pair style lj/cut/tip4p/long/omp from restart
  restoring bond style harmonic/omp from restart
  restoring angle style harmonic/omp from restart
  1920 atoms
  1280 bonds
  640 angles
Finding 1-2 1-3 1-4 neighbors ...
  special bond factors lj:    0        0        0       
  special bond factors coul:  0        0        0       
     2 = max # of 1-2 neighbors
     1 = max # of 1-3 neighbors
     1 = max # of 1-4 neighbors
     2 = max # of special neighbors
  special bonds CPU = 0.001 seconds
  read_restart CPU = 0.006 seconds
include 	in.setup
variable	out_freq equal 1000
variable	out_freq2 equal 10000
variable	out_freq3 equal 1000

timestep	2.0

neigh_modify    delay 7 every 1

include		in.tip4p
# This is TIP4P/Ice

# create groups ###
group ox type 2
640 atoms in group ox
group hy type 1
1280 atoms in group hy

# set charges - beside manually ###
set group ox charge -1.1794
Setting atom values ...
  640 settings made for charge
set group hy charge 0.5897
Setting atom values ...
  1280 settings made for charge

# ### TIP3P Potential Parameters ###
pair_style lj/cut/tip4p/long/omp 2 1 1 1 0.1577 8.5
pair_coeff 1 1*2 0.000 0.000
pair_coeff 2 2 0.21084 3.1668
bond_style  harmonic
bond_coeff  1 450 0.9572
angle_style harmonic
angle_coeff 1 55 104.52
kspace_style pppm/tip4p/omp 1.0e-5
pair_modify tail yes

thermo          ${out_freq}
thermo          1000
thermo_style    custom step temp pe etotal epair emol press lx ly lz vol pxx pyy pzz pxy pxz pyz enthalpy

restart 	${out_freq3} restart.lmp.${pid} restart2.lmp.${pid}
restart 	1000 restart.lmp.${pid} restart2.lmp.${pid}
restart 	1000 restart.lmp.0 restart2.lmp.${pid}
restart 	1000 restart.lmp.0 restart2.lmp.0


include         in.dump
dump            myDump all atom ${out_freq2} dump.water.${pid}
dump            myDump all atom 10000 dump.water.${pid}
dump            myDump all atom 10000 dump.water.0
dump            myDump2 all dcd ${out_freq2} dump.dcd
dump            myDump2 all dcd 10000 dump.dcd
dump_modify     myDump append yes
dump_modify     myDump2 append yes


variable natoms 	equal  "count(all)"                        # NUMBER ATOMS
variable H      	equal  "enthalpy/v_natoms"                 # ENTHALPY-per-atom
variable Vol      	equal  "vol/v_natoms"                 # volume-per-atom
fix AVG all 		ave/time ${out_freq} 1 ${out_freq} v_Vol v_H file vol_enthalpy.dat
fix AVG all 		ave/time 1000 1 ${out_freq} v_Vol v_H file vol_enthalpy.dat
fix AVG all 		ave/time 1000 1 1000 v_Vol v_H file vol_enthalpy.dat




fix 		1 all shake 1e-6 200 0 b 1 a 1
       0 = # of size 2 clusters
       0 = # of size 3 clusters
       0 = # of size 4 clusters
     640 = # of frozen angles
  find clusters CPU = 0.000 seconds
fix             2 all nph aniso ${pressure} ${pressure} ${pressureDamp}
fix             2 all nph aniso 8261.2 ${pressure} ${pressureDamp}
fix             2 all nph aniso 8261.2 8261.2 ${pressureDamp}
fix             2 all nph aniso 8261.2 8261.2 1000
fix             3 all temp/csvr ${temperature} ${temperature} ${tempDamp} ${seed}
fix             3 all temp/csvr 110.77 ${temperature} ${tempDamp} ${seed}
fix             3 all temp/csvr 110.77 110.77 ${tempDamp} ${seed}
fix             3 all temp/csvr 110.77 110.77 100 ${seed}
fix             3 all temp/csvr 110.77 110.77 100 745823


run             250000
PPPM initialization ...
  extracting TIP4P info from pair style
  using 12-bit tables for long-range coulomb (../kspace.cpp:340)
  G vector (1/distance) = 0.37515528
  grid = 30 30 30
  stencil order = 5
  estimated absolute RMS force accuracy = 0.0031868684
  estimated relative force accuracy = 9.5971597e-06
  using double precision FFTW3
  3d grid and FFT values/proc = 7920 1800
Last active /omp style is kspace_style pppm/tip4p/omp
Neighbor list info ...
  update every 1 steps, delay 7 steps, check yes
  max neighbors/atom: 2000, page size: 100000
  master list distance cutoff = 10.8154
  ghost atom cutoff = 10.8154
  binsize = 5.4077, bins = 5 5 5
  1 neighbor lists, perpetual/occasional/extra = 1 0 0
  (1) pair lj/cut/tip4p/long/omp, perpetual
      attributes: half, newton on, omp
      pair build: half/bin/newton/omp
      stencil: half/bin/3d
      bin: standard
Per MPI rank memory allocation (min/avg/max) = 12.56 | 12.57 | 12.57 Mbytes
Step Temp PotEng TotEng E_pair E_mol Press Lx Ly Lz Volume Pxx Pyy Pzz Pxy Pxz Pyz Enthalpy 
30750000    113.86908   -9742.3467   -9308.2258   -9742.3467            0    8138.6611     24.67117    24.707029      22.8875    13951.106    8015.5174    9021.4524    7379.0135    305.12937   -946.32501   -543.51055   -7652.3129 
30751000    110.61438   -9746.1923   -9324.4798   -9746.1923            0    7011.4637    24.784394    24.724204     22.83166    13990.657    7066.0367    7064.1419    6904.2124   -709.74003    193.48652    878.56931   -7893.8651 
30752000     110.4561   -9731.6486   -9310.5395   -9731.6486            0     8583.143      24.7878    24.710769    22.717353     13914.96    7930.9698    9092.5766    8725.8824    55.446815    131.62197    18.867886   -7568.7158 
30753000    108.09325   -9731.9865   -9319.8858   -9731.9865            0    7780.5263    24.709498    24.731582    22.820797    13945.903    8585.4727    7512.3609    7243.7455    -662.9583   -141.00953    667.08067   -7737.4303 
30754000    110.98613   -9750.7339   -9327.6041   -9750.7339            0    8352.7458    24.678439    24.751428    22.792693    13922.384    8357.6165     8787.511      7913.11   -227.61201   -404.09202     258.8742   -7631.6318 
30755000    111.59899   -9732.1707   -9306.7045   -9732.1707            0    8237.4052    24.677222    24.841724    22.732307    13935.467    9695.2681    6796.3121    8220.6355    526.00298   -624.52851    350.35795   -7632.5796 
30756000    113.95613   -9732.3304   -9297.8776   -9732.3304            0    7691.0471    24.709085    24.772716    22.793878    13952.386     7074.317    8202.3482    7796.4761   -317.08047   -271.26939    -28.36486   -7732.8938 
30757000    109.69535   -9737.8273   -9319.6186   -9737.8273            0    8657.9812    24.615054    24.683086     22.88309    13903.205    9280.5441    8896.7266    7796.6728    217.32529    87.357402   -327.25748   -7564.0918 
30758000    106.40301   -9726.0737   -9320.4169   -9726.0737            0    8971.5842    24.690757    24.761978    22.737643    13901.613    9234.4218    8247.5469    9432.7838   -750.60939    168.71361     348.7427   -7501.5111 
30759000    111.96826   -9719.5821    -9292.708   -9719.5821            0    8310.6145    24.716706    24.814804    22.722471    13936.605    9339.2854    7519.4706    8073.0876   -484.49254   -412.13634   -1092.8093   -7603.5665 
30760000    113.32373   -9732.6188   -9300.5771   -9732.6188            0    9393.7296    24.705458    24.750499    22.707379    13884.936    9447.6329    8664.1561      10069.4      131.033    88.494696   -317.38915   -7398.3699 
30761000    107.74226   -9731.5245   -9320.7619   -9731.5245            0    7565.6852    24.697416    24.753796     22.85375    13971.749      8121.26    6970.6294    7605.1662    567.36454   -249.64946    187.91408   -7779.1504 
30762000    113.79077   -9731.6074   -9297.7851   -9731.6074            0    8005.7537    24.685181     24.79277    22.796614    13951.848    8639.4817    7185.1436    8192.6357   -516.60991    1098.8909   -668.00258   -7668.8273 
30763000    112.41705   -9733.3353   -9304.7502   -9733.3353            0    8282.5778    24.714621    24.785782    22.745777    13933.408    8678.9496    8061.1316    8107.6523    -588.6721   -1236.9921    948.49197   -7621.6935 
30764000    110.19861   -9752.7493   -9332.6219   -9752.7493            0    8293.3274    24.741121    24.764584    22.711162     13915.21    8010.7903    7901.5996    8967.5922    303.85376    421.79058    566.85354   -7649.5818 
30765000    112.15016   -9738.5803   -9311.0127   -9738.5803            0    8298.3388    24.600902    24.820399    22.795236    13918.867    9597.7921    7757.5013    7539.7229   -417.47332   -513.35111    -130.4822   -7626.5131 
30766000     112.3168   -9739.6786   -9311.4757   -9739.6786            0    7543.4184    24.739433    24.791277    22.766681    13963.309    8038.1277    6635.7421    7956.3854   -127.81561   -651.08113    703.17811   -7775.3299 
30767000    110.85178   -9733.2289   -9310.6113   -9733.2289            0    8570.1069    24.801531    24.739142    22.702048    13929.264    7839.9793    8346.1898    9524.1515   -376.20682   -233.17623    767.67021   -7569.6453 
30768000    112.31554   -9756.9573   -9328.7592   -9756.9573            0    8288.3426     24.76135    24.706084    22.765709    13927.059    7589.2557    8570.4362    8705.3359     23.63172    -615.1191     195.4995   -7645.2985 
30769000    110.66054   -9744.6731   -9322.7847   -9744.6731            0    7312.0839    24.665294    24.741619    22.874909    13959.626    7210.5563    8620.8942    6104.8012    112.12965   0.67775898     344.4034   -7834.1407 
30770000    108.89059   -9735.7467   -9320.6062   -9735.7467            0    8578.8151    24.696588    24.804144    22.698589     13904.65    8163.6451    8287.0068    9285.7934   -103.04387   -435.57611   -133.73761   -7580.9507 
30771000    108.56265    -9735.104   -9321.2137    -9735.104            0    8223.0984     24.77335    24.801232     22.67088    13929.206    7328.7307    8610.9744    8729.5901   -294.33016    29.333018    537.20849   -7650.7473 
30772000    113.98739   -9742.4961   -9307.9242   -9742.4961            0    7912.2841    24.716316    24.735555    22.831893    13958.775    8175.8779    8048.9971    7511.9774   -396.55202    122.43332    272.93872   -7697.1855 
30773000    107.31129   -9740.8086    -9331.689   -9740.8086            0    8618.9717     24.74728    24.742737    22.714957    13908.719     8006.835    9087.6759    8762.4041    -1161.052    354.78216    17.989208   -7583.3788 
30774000    110.85168    -9706.801   -9284.1838    -9706.801            0    8158.5368    24.755522     24.79742    22.702706     13936.58    8193.3517     8124.154    8158.1047    79.456172   -451.62858    277.41687   -7625.9553 
30775000     112.1762    -9734.199   -9306.5322    -9734.199            0    8444.2287    24.658846    24.764629     22.78881    13916.378    9048.7803    8225.6653    8058.2405   -154.45355    204.67197    206.73744   -7592.7244 
30776000    111.34025   -9718.8767   -9294.3969   -9718.8767            0    8812.4012    24.728947    24.604125    22.836997    13894.808    8245.1087    10332.351    7859.7437    183.07912   -149.18717   -153.41118   -7508.6385 
30777000    109.76025   -9729.0538   -9310.5977   -9729.0538            0    8698.1438    24.787058    24.694019     22.73194     13914.04    7863.8881    9288.3214    8942.2219    -409.6273   -506.67416    905.78281   -7545.5529 
30778000    109.62569   -9735.1746   -9317.2314   -9735.1746            0    9205.7944    24.741538    24.743823    22.682262    13886.086    8319.8606    9171.4611    10126.061   -121.56428   -234.92417    392.37891   -7452.9262 
30779000    110.31755   -9747.5276   -9326.9468   -9747.5276            0    8276.1305    24.700978    24.753882    22.782418    13930.198    7806.0366    8296.0673    8726.2877    5.2827299   -691.41889   -407.62454   -7645.5876 
30780000    113.42773   -9726.9976   -9294.5593   -9726.9976            0    9377.6175    24.563581    24.729977    22.866727    13890.548     10442.01    9565.1819    8125.6603    -195.5312     459.4146    -290.5058   -7394.8472 
30781000    111.84239    -9722.815   -9296.4208    -9722.815            0    8335.8618    24.728117    24.771101     22.75455    13938.133    8674.3501    7934.6291    8398.6063     169.2185     -581.576    64.383186    -7601.962 
30782000    114.23662   -9736.9277   -9301.4056   -9736.9277            0    7664.9105    24.823588    24.705151    22.748953    13951.262    7280.5679    7749.0913    7965.0723    361.34249   -697.29015   -23.276857   -7741.8659 
30783000    114.87006   -9746.2731    -9308.336   -9746.2731            0    7845.8633    24.746255    24.676468    22.830905    13941.696    8326.8356    8188.0813    7022.6728   -185.01345   -108.46394   -175.85438   -7713.0732 
30784000    109.77352   -9747.8893   -9329.3825   -9747.8893            0    7899.1085    24.738435     24.66598    22.847806    13941.679    7174.6197     9075.092    7447.6137   -210.93968   -330.25671     636.8444   -7723.2956 
30785000    104.63008   -9738.8026    -9339.905   -9738.8026            0    8097.1504    24.764713    24.764892    22.724932    13937.097    8364.1823      7581.08    8346.1889   -58.662509    101.42558    169.94464   -7694.0922 
30786000    110.45237   -9735.5142   -9314.4194   -9735.5142            0    7802.1289    24.792638    24.651274    22.800691    13935.101    6916.1401    9132.1331    7358.1135    79.240336    14.061978    182.27401   -7728.7993 
30787000    109.57244   -9734.9785   -9317.2384   -9734.9785            0    7815.2347    24.691324    24.753009    22.834293    13955.967    8575.9274    7508.3526     7361.424   -651.21229    4.4944373    -665.6935   -7726.5765 
30788000    111.60396   -9730.4857   -9305.0005   -9730.4857            0    7991.1116    24.648503    24.694439    22.910722     13945.32    8316.7841    8293.0314    7363.5195   -48.810693   -313.91131    115.96737   -7679.7827 
30789000    106.30265   -9732.7611    -9327.487   -9732.7611            0    8444.2835    24.747621    24.748804    22.751216    13934.529    8260.1623    9268.8215    7803.8668   -93.127259   -606.51808   -335.94574   -7611.4328 
30790000    113.33916   -9752.3979   -9320.2973   -9752.3979            0    8403.8279    24.694304    24.871895    22.639846    13905.261    8740.2782    7507.4112    8963.7942   -19.348107   -378.16528    -709.9185   -7616.0518 
30791000    108.97509   -9746.6055   -9331.1427   -9746.6055            0    8988.8472    24.664932    24.730343    22.753234     13878.84    9438.4696    8090.5304    9437.5417   -139.41482   -1160.4897   -61.406675   -7511.7223 
30792000    109.70173   -9741.0528   -9322.8198   -9741.0528            0    7924.0159    24.704079    24.717831    22.830971    13941.305    7766.9697    8536.1712    7468.9069   -312.00442   -24.715283   -753.05875   -7711.7118 
30793000    111.32979   -9725.9688   -9301.5288   -9725.9688            0    9226.9825    24.740831    24.655034     22.79035    13901.795    8400.7526    9558.8398     9721.355    48.649098   -92.853018    682.47888   -7430.8188 
30794000    111.52461   -9747.0831   -9321.9004   -9747.0831            0    7591.9245    24.776606     24.75765    22.750855    13955.614    7023.6458    7814.4897     7937.638   -113.66152   -432.85798    16.008449   -7776.7287 
30795000    106.89467    -9743.833   -9336.3018    -9743.833            0    8988.7804    24.751321    24.719411    22.704383    13891.406    8531.1139    8936.6488    9498.5785   -874.92669   -958.79642    194.77258   -7515.2476 
30796000    113.48815   -9727.3192   -9294.6507   -9727.3192            0    8131.1163    24.749193    24.671114    22.832425    13941.254     8736.413    8028.8547     7628.081   -521.19246   -826.36584    272.71583   -7641.4412 
30797000    110.47594   -9738.9542   -9317.7695   -9738.9542            0    9182.5949    24.765627    24.662501    22.751567    13896.255    8327.1701    10313.041    8907.5735   -186.42474   -1009.4648    665.55965   -7456.8008 
30798000    108.07695   -9733.4846    -9321.446   -9733.4846            0    8120.5661    24.709525    24.745795    22.807209    13945.624    8124.7869    8096.6279    8140.2834   -770.56449   -167.97467     228.2621    -7669.864 
30799000    114.27445   -9738.7528   -9303.0865   -9738.7528            0    7675.3231    24.748494    24.773774    22.759835    13954.364    7885.9318    6855.1401    8284.8973    94.416124    375.06898      288.833   -7741.0808 
30800000     112.5295   -9726.3576   -9297.3439   -9726.3576            0    9031.6956     24.66594    24.713404    22.791861    13893.448    9301.0975    9163.6794      8630.31    367.58097   -47.365325   -120.17044   -7467.3265 
30801000    109.88139   -9734.9992   -9316.0812   -9734.9992            0     7525.989    24.728634      24.7166    22.841906     13961.15    8144.4112    7401.0324    7032.5235   -318.06011   -462.98471    34.743913   -7783.7217 
30802000    112.03707   -9739.3788   -9312.2424   -9739.3788            0    8133.4453    24.813587    24.667123    22.757016     13929.11    7221.6644    9000.0097    8178.6617   -120.62111   -176.78483     1122.755   -7659.9999 
30803000    107.47589   -9723.7943   -9314.0471   -9723.7943            0    8357.0012    24.728878    24.714135    22.778911    13921.396    9010.5932    8073.3418    7987.0688   -601.74513   -48.119434    535.47182   -7617.3312 
30804000     109.5823   -9727.0887    -9309.311   -9727.0887            0    8032.6802    24.595696    24.788234    22.887346    13954.045    8893.8249    7496.7303    7707.4853   -136.48809   -537.60086    323.93615   -7674.6169 
30805000    112.64169   -9730.4206   -9300.9792   -9730.4206            0    8605.5077    24.646582    24.806547    22.756528    13913.263    9094.5028    8032.5003    8689.5201   -40.216741    345.68745    298.84405   -7554.8298 
30806000    111.92344    -9730.715   -9304.0118    -9730.715            0    7659.5974    24.732476    24.853405    22.699688    13953.187    8474.3362    7432.2641    7072.1918   -139.44073    351.47692    418.48901    -7745.338 
30807000    109.93444   -9734.1541   -9315.0339   -9734.1541            0    8406.6417    24.708314      24.7381    22.778675    13923.163    8704.0023    8358.1347     8157.788   -403.40321    754.18215    165.57029   -7608.0229 
30808000    107.45193   -9727.2198    -9317.564   -9727.2198            0    8413.8033    24.750032    24.630416    22.844364    13926.006    8033.5822    9577.1799    7630.6477    192.87638    160.65074   -522.86247   -7608.7499 
30809000    111.03897   -9741.3676   -9318.0365   -9741.3676            0    8188.1648    24.761451    24.703728     22.77496    13931.446    8437.7343    8240.0959    7886.6642    633.72183   -753.31151     765.2233   -7654.3991 
30810000    109.41228   -9750.2673   -9333.1377   -9750.2673            0    8036.2921    24.778894    24.778403    22.679923    13925.052    7979.8313    7746.0499    8382.9951    272.30632    101.54242   -4.1242834   -7701.1066 
30811000    105.49067   -9727.0005    -9324.822   -9727.0005            0    8565.9994    24.684297     24.75514    22.780259    13920.178    8567.0426    8120.1819    9010.7735   -353.86705   -1453.1492    132.41242   -7585.8254 
30812000    110.34286   -9733.1781   -9312.5008   -9733.1781            0    8825.5062    24.729518    24.763335    22.708903    13906.599     8977.206    8052.4379    9446.8748   -346.33816    220.22112   -91.267628   -7522.5692 
30813000    112.54267   -9728.3116   -9299.2477   -9728.3116            0    7217.8014    24.696667    24.723097    22.915784    13991.875    6747.1343    7718.5074    7187.7625    121.33391   -167.34173   -552.17893   -7826.4037 
30814000    113.02995   -9744.4102   -9313.4885   -9744.4102            0    8531.7895    24.690353    24.770318    22.747873    13912.324    9073.3616    7717.9638    8804.0431    36.148695   -505.68907   -371.90926   -7582.4143 
30815000    106.34881    -9741.934   -9336.4838    -9741.934            0    8300.5057    24.710753    24.810778     22.71631     13927.21    8372.7537    7553.7363    8975.0271   -410.68308    133.27221    -117.9185   -7650.5343 
30816000    113.38414   -9721.6707   -9289.3986   -9721.6707            0    7768.7796    24.663612    24.812264    22.818947    13964.284    8216.4409    6983.9815    8105.9165    234.46503    -402.3111   -6.6999682   -7707.2496 
30817000    105.99317   -9735.9384   -9331.8441   -9735.9384            0    8021.2344    24.719932    24.754948    22.760011    13927.775    7826.4822    8162.2387    8074.9822    46.069086    261.42156     458.3296   -7702.5524 
30818000    107.41578   -9742.2504   -9332.7325   -9742.2504            0    7880.5023    24.802924    24.689948    22.767732    13942.569    7103.9163    8459.1954    8078.3952   -79.251929    153.34675    570.64291   -7730.3263 
30819000    109.71135   -9745.2117    -9326.942   -9745.2117            0    8612.4989    24.804426    24.652278    22.738801    13904.449    8122.7263    9510.4758    8204.2944    -331.9286   -641.17231   -308.79029   -7580.4812 
30820000     107.1172   -9737.4612   -9329.0816   -9737.4612            0     7285.241    24.746324    24.734617    22.835319     13977.29    7963.2186     7591.276    6301.2284    -216.0904    105.83598    482.01031   -7844.0257 
30821000    110.52586   -9737.1204   -9315.7455   -9737.1204            0    7903.0593    24.748599    24.742505    22.770664    13943.441    8159.5086    7515.2825    8034.3868    718.61036    379.65018    234.32501   -7708.6521 
30822000     112.2472   -9732.8576     -9304.92   -9732.8576            0    8296.9285    24.710389    24.779509    22.763428    13938.304    8057.6341     8004.212    8828.9394   -148.23959   -740.16731    380.42537   -7618.3547 
30823000    105.82356   -9755.2302   -9351.7826   -9755.2302            0    6911.0004    24.761397    24.830742     22.72989    13975.333    7113.0063    6153.5874    7466.4073    288.05463   -471.94118   -313.90448   -7943.2108 
30824000    116.11905   -9744.3284   -9301.6296   -9744.3284            0    9230.9577    24.719145    24.690529    22.771403    13898.042    8688.3058    9853.2194     9151.348     36.91107    49.904693    635.94434   -7430.6189 
30825000    112.89604   -9729.1968   -9298.7856   -9729.1968            0    8106.7961    24.874492    24.736634    22.686818    13959.453    6723.0327    8972.5198    8624.8358    436.10867   -288.25835    30.273984   -7648.3691 
30826000    109.10691   -9735.3437   -9319.3784   -9735.3437            0    7094.7805    24.767277    24.666016    22.890137    13983.815    7140.4986    8446.5066    5697.3363   -14.368278   -384.02907    560.89988   -7872.4717 
30827000     110.6934   -9750.0641   -9328.0503   -9750.0641            0     8312.636    24.685428    24.700793    22.802727    13903.955    8922.1389    8731.2826    7284.4865   -815.08063   -496.91471     316.6536   -7642.4563 
30828000    111.92252   -9733.0366   -9306.3369   -9733.0366            0    7090.0117    24.726798    24.806463    22.803698    13987.433    7425.6624     6700.782    7143.5906   -650.44179   -91.451299   -399.39378   -7860.0287 
30829000    109.40605   -9731.9243   -9314.8186   -9731.9243            0    9267.3088    24.647554    24.751029     22.76153    13885.724    10407.151    8044.5083     9350.267   -433.07239    48.487563    382.56296   -7438.1047 
30830000    109.50193   -9733.9863    -9316.515   -9733.9863            0    7249.9167    24.746816    24.756149     22.80631    13971.963     6783.207    7514.9049    7451.6382    -187.7671    1096.3489    327.33208    -7839.223 
30831000    115.44863    -9738.097   -9297.9542    -9738.097            0    8332.7694    24.756843    24.770467    22.689804    13914.263    7902.3277    8169.7743    8926.2063    367.69111   -452.52227     184.3828   -7607.0248 
30832000    107.42801   -9729.4802   -9319.9157   -9729.4802            0    7790.2007    24.684594    24.799235    22.798462    13956.285    8149.6246    7716.2877    7504.6897   -267.07282   -151.45847   -108.37705   -7734.3131 
30833000    111.52724   -9763.4347    -9338.242   -9763.4347            0    8048.2513    24.698822    24.689714    22.828834    13921.179    7731.1209    8565.7273    7847.9056    -623.0545   -491.70858     456.2605   -7704.2368 
30834000    113.16291   -9725.2224   -9293.7938   -9725.2224            0    8381.0835    24.737483    24.700632    22.792316    13926.823    8247.2053    8736.0672    8159.9781   -170.94074    71.081519   -579.67203   -7591.5251 
30835000    112.96679   -9756.6297   -9325.9488   -9756.6297            0     7767.766    24.744223    24.756051    22.757096    13940.298    7809.3876    7358.1131    8135.7972   -193.23194   -309.12584    480.70191   -7746.7236 
30836000    113.53956   -9739.0222   -9306.1576   -9739.0222            0    8861.7026    24.657415     24.69951     22.83023    13904.205    9529.7148    8670.9849    8384.4081   -23.356907   -354.28835    18.943516   -7509.1942 
30837000    107.03258   -9726.3608   -9318.3038   -9726.3608            0    7727.3507    24.748757     24.70941    22.819513    13954.753    7389.5151    8442.9144    7349.6226   -351.02537     149.1872    159.71884   -7745.6662 
30838000    114.41223   -9734.0286    -9297.837   -9734.0286            0     8675.649    24.803501    24.664512    22.750193      13917.8    7122.8435    9909.6721    8994.4314    -245.0403     181.4312   -74.664459   -7536.8812 
30839000    104.13362   -9735.5019   -9338.4971   -9735.5019            0    8290.6964    24.797247    24.784758    22.678137    13937.842    7784.8956    7802.7094    9284.4844   -826.09166   -108.69364    262.09527   -7653.2545 
30840000    114.67964   -9742.8969   -9305.6859   -9742.8969            0    8901.4861    24.715939     24.73787    22.750521    13910.116    8155.8938    9293.1747    9255.3897    632.21157    39.504028   -900.23709   -7499.8879 
30841000    108.81328   -9740.8147   -9325.9688   -9740.8147            0    8659.1632    24.657017    24.738742    22.797041     13905.82    8984.3884    8097.1189    8895.9824    398.50233    254.04031   -78.651495   -7569.8722 
30842000    111.88076   -9740.4486   -9313.9081   -9740.4486            0    7704.7653    24.646825    24.763847    22.860055    13952.639    8460.5755    7393.6261    7260.0941    24.918312   -547.34392    490.21863   -7746.1045 
30843000    111.97427   -9736.6057   -9309.7087   -9736.6057            0    8570.9226    24.770048     24.74653    22.704004    13916.935    8102.9232    8275.1293    9334.7152   -33.700208    450.93587   -530.78468    -7570.118 
30844000     108.7939   -9723.8751   -9309.1031   -9723.8751            0    9033.5312    24.723295    24.795199     22.67934    13902.867    9849.0386    7756.7846    9494.7705   -211.40787    -506.5602    432.25406   -7477.4729 
30845000     103.3787   -9740.1089   -9345.9821   -9740.1089            0    7788.2295    24.700488    24.751227    22.817209    13949.697    8356.7779    7979.0996    7028.8109   -454.80793    -30.78101   -527.47243   -7761.5289 
30846000    110.23665   -9732.5871   -9312.3147   -9732.5871            0    9004.3703    24.697837    24.662624    22.830644    13906.453    9333.0065    9667.5015    8012.6028   -242.82058    -658.2258    424.71988   -7486.1262 
30847000    113.12754   -9738.1213   -9306.8275   -9738.1213            0    7543.8399    24.741685     24.70842    22.835801    13960.164    7308.9542    8236.2408    7086.3247   -254.06112    140.38594   -280.97286    -7770.942 
30848000    107.62735   -9748.0512   -9337.7266   -9748.0512            0    8744.7613    24.722018    24.720262    22.747532    13901.808    8617.6041    8872.6521    8744.0278    40.917497   -424.49557   -389.87572   -7564.7822 
30849000    112.17705   -9735.6731    -9308.003   -9735.6731            0    7497.2829    24.800288    24.830548    22.662191    13955.484    6818.7125    7179.2961    8493.8402   -33.587373    -827.5539     363.4246   -7782.1078 
30850000    108.59731   -9743.2392   -9329.2167   -9743.2392            0    8564.0863    24.678456    24.730299    22.791702    13909.904    8211.4608    8733.6667    8747.1315    22.313677     49.90889    92.129169   -7591.8918 
30851000    110.30249   -9746.4604    -9325.937   -9746.4604            0    7847.5126    24.640509    24.792834    22.820334    13941.126    8543.2184    7431.1931    7568.1263   -326.59053   -242.20865     708.6579   -7730.4041 
30852000    111.42307   -9724.6361   -9299.8405   -9724.6361            0    8224.3526    24.599224    24.845874    22.813159    13943.157    8719.9145    6896.8824    9056.2609     260.2944   -498.56826    605.61781    -7627.446 
30853000    111.24847   -9734.1504   -9310.0205   -9734.1504            0    8609.8413    24.717267    24.784791    22.723443     13920.66    9141.5095    7789.0962    8898.9182   -663.60784    543.17735    318.15224    -7562.063 
30854000    113.16489   -9742.1583   -9310.7221   -9742.1583            0    9450.0619    24.658743    24.652757     22.82368    13874.652    9038.2288    10107.777    9204.1796    39.930773    373.72807    551.50538   -7398.5251 
30855000    111.14445   -9730.3016   -9306.5682   -9730.3016            0    8378.5559    24.699312    24.671015    22.835062    13914.707    7887.9969    8737.7139    8509.9568    66.757495      577.439   -71.976292   -7606.2934 
30856000    111.42563   -9748.3582   -9323.5529   -9748.3582            0    8613.3865    24.728268    24.808824     22.65285    13897.053    8685.7521    7935.1705    9219.2371    -93.21799   -1126.2244   -1216.5681   -7577.8411 
30857000    111.39112   -9737.6813   -9313.0075   -9737.6813            0    8453.0335    24.717283    24.755926     22.75544    13924.036     8260.023     7975.116    9123.9616   -247.89532   -675.10562    788.38724   -7596.4687 
30858000    109.85406   -9732.5467   -9313.7329   -9732.5467            0    9018.8591    24.747535    24.617004     22.82479    13905.094    8306.3592    10285.191    8465.0275   -306.42002   -550.09437   -446.82882   -7484.7846 
30859000    108.48884   -9735.6395   -9322.0306   -9735.6395            0    7787.7126    24.726382    24.722646    22.831854    13957.148    7126.4055    8431.7543    7804.9779     248.8686   -834.75234   -370.81208   -7736.8363 
30860000    110.72235   -9748.3204   -9326.1963   -9748.3204            0    8617.2778    24.730595    24.758449    22.714108    13907.648    8140.3258    8750.4929    8961.0148    154.43134    2.5925512    106.61905   -7578.3643 
30861000    110.80122   -9734.4003   -9311.9755   -9734.4003            0    8231.1599    24.711965    24.772806    22.748543     13926.31    9131.3991    7427.9055    8134.1749   -509.37355    184.78494    590.72587   -7640.2191 
30862000    112.79524   -9739.5175   -9309.4906   -9739.5175            0    8154.1595    24.671451    24.705714    22.859845    13933.666    8178.7074     8629.791    7653.9801   -11.601578    489.31471    846.61948   -7652.4983 
30863000    107.32658    -9730.638   -9321.4601    -9730.638            0    7522.9369    24.728428    24.787442    22.790513    13969.547    6897.9691    8260.1598    7410.6816    164.89711   -252.67399    706.31858   -7788.8008 
30864000    117.20371   -9738.7113   -9291.8773   -9738.7113            0    7418.1927    24.769357    24.787952    22.753264    13970.087    6528.3639    7740.6946    7985.5197   -3.4515832   -331.18905   -124.55403   -7780.4993 
30865000    113.96314   -9721.8739   -9287.3944   -9721.8739            0    9339.4712    24.717965     24.76461    22.668644    13876.175    9070.9269    9171.7873    9775.6993   -139.15628   -639.80596    460.69439   -7397.3677 
30866000    108.36106   -9738.2052   -9325.0835   -9738.2052            0    8420.2861     24.68553    24.717776    22.815442     13921.33    8900.4378    8741.4064    7619.0142   -236.75275   -603.20943    47.655159   -7615.5269 
30867000    108.57981   -9751.9308    -9337.975   -9751.9308            0    8304.4285    24.594301    24.768878     22.82468    13904.184    9328.0959    7570.1443    8015.0452     213.6127   -811.24553   -95.211831   -7654.0174 
30868000    106.73099   -9742.1803   -9335.2731   -9742.1803            0    7898.0869    24.676883    24.826433    22.761137     13944.36    8411.6103    7182.7655     8099.885   -275.75686   -33.294455    318.59341   -7729.0851 
30869000    110.74322   -9741.8701   -9319.6664   -9741.8701            0    7854.6269    24.733132    24.748184     22.77692    13941.755    7346.3053    8063.7166    8153.8587    155.05971   -348.48089    -29.84729    -7722.615 
30870000    107.67953    -9736.054   -9325.5305    -9736.054            0    7950.7362    24.684956    24.709402    22.860514    13943.782    8298.1139    7905.2478    7648.8469   -2.6152956   -16.325849    534.62466   -7708.7025 
30871000    108.78408   -9733.5143   -9318.7798   -9733.5143            0    8879.3671    24.689725    24.667669    22.833844    13906.678    8611.1553    9361.2247    8665.7211    43.080325    357.90745     617.6774   -7517.9142 
30872000    110.22782   -9725.4461   -9305.2074   -9725.4461            0    8323.5981    24.798287     24.77096    22.687272    13936.278    7634.6983    7462.0955    9874.0004    89.368965   -649.66612    231.55514   -7613.4667 
30873000    109.25848   -9743.8511   -9327.3079   -9743.8511            0    8224.9209    24.785079    24.785414     22.66503    13923.319    8027.4521    7251.1462    9396.1645   -189.53345    297.90138    405.53249   -7657.1775 
30874000    115.40223   -9737.5294   -9297.5635   -9737.5294            0    8902.9042    24.698894    24.667233    22.826678    13907.231    8738.7699    9436.6159    8533.3269   -252.68283   -528.75523    260.14443   -7491.8525 
30875000    112.09127   -9723.1075   -9295.7644   -9723.1075            0    8243.3606    24.565559    24.839442     22.83825    13935.781    9852.8788    7413.9653    7463.2376     -270.038   0.23147662   -28.571879   -7620.3915 
30876000    111.62153   -9745.1577   -9319.6055   -9745.1577            0    7632.8131    24.700509    24.777889    22.793772    13950.392    8124.5111    7572.8708    7201.0572    188.37634    138.15526    89.107434   -7766.6932 
30877000    113.37786   -9733.9475   -9301.6994   -9733.9475            0    9754.5513    24.651396    24.677223    22.790441    13864.064    9800.0402     9680.122    9783.4918   -149.37642    49.409482    995.47247    -7329.396 
30878000    108.47645   -9738.1177    -9324.556   -9738.1177            0    7581.3202    24.765375    24.708571    22.812567    13959.398    7599.3681    7682.8102    7461.7823    60.253714   -734.06328   -54.983823   -7781.1243 
30879000    109.69363   -9728.3911   -9310.1889   -9728.3911            0    8370.6845    24.763311    24.671785    22.777601    13916.091    7079.8795    9483.4279     8548.746   -605.73198   -164.45616    41.812257   -7611.3425 
30880000    110.18683   -9752.3744    -9332.292   -9752.3744            0    8244.9225    24.739308     24.74698    22.756379    13931.982    8225.0896    7423.3257    9086.3523   -74.573878    137.37193     210.3231   -7657.0584 
30881000     108.6881   -9746.6924   -9332.3238   -9746.6924            0     8331.253    24.624405    24.777184    22.833651    13931.345    9001.0287    8342.4522    7650.2779    340.86078     -1213.16    441.14065   -7639.6267 
30882000    110.09827   -9741.3751   -9321.6303   -9741.3751            0     8012.865    24.680335    24.721921    22.870486    13954.319    7813.5801    8336.7689    7888.2461    91.442247   -370.08651   -474.41586   -7690.9367 
30883000     108.0918   -9734.5868   -9322.4916   -9734.5868            0    7986.5976    24.760406    24.784656    22.715754    13940.162    7316.4817    7735.0431    8908.2681   -547.32636   -127.76801    346.48026   -7698.7926 
30884000    109.93624   -9750.3541    -9331.227   -9750.3541            0       8070.4    24.807386    24.761429    22.664503    13922.041    7506.3285     7652.756    9052.1156   -237.24829   -730.77529    512.72929   -7692.6236 
30885000    109.43939   -9759.3934   -9342.1605   -9759.3934            0    7613.8785    24.747411    24.723805    22.786426    13941.879    7139.7648    7987.8069    7714.0637   -11.080949   -409.67659    810.17531   -7794.0458 
30886000    109.40644   -9728.5576   -9311.4504   -9728.5576            0    8330.4083    24.664788    24.720114    22.855372    13935.294    8323.9631    9051.8143    7615.4475     -148.476    654.13891    220.30619   -7618.4451 
30887000    109.30168    -9744.713   -9328.0052    -9744.713            0    8192.3411    24.686893    24.791761    22.774755    13938.869    8682.3286    7389.9704    8504.7242    376.91005   -627.40703     -10.0635   -7662.6325 
30888000    112.70166   -9741.7879   -9312.1178   -9741.7879            0    8436.5251    24.744956    24.789956    22.694148    13921.189    7712.0051    8275.3584    9322.2117    393.90272   -289.47522   -12.713812   -7599.2817 
30889000     108.1334   -9746.9752   -9334.7214   -9746.9752            0    8346.9016     24.74084    24.710937    22.763747    13917.057     7083.715    9049.1848    8907.8049   -238.70583   -400.43589    8.5338937   -7640.5842 
30890000    108.27358   -9728.4499   -9315.6616   -9728.4499            0    8683.0838    24.688019    24.718644    22.810501    13920.207    8976.2057    8261.4859    8811.5596    26.548043    210.28018   -373.09006   -7552.8919 
30891000    109.28334   -9751.5465   -9334.9086   -9751.5465            0    8112.1815    24.667723    24.726799    22.856232    13941.246    8279.1627    8747.9538     7309.428    -95.03909    78.544452   -354.92938   -7685.5498 
30892000    110.66685   -9750.6051   -9328.6926   -9750.6051            0    8837.9879    24.668538    24.764122    22.751801    13898.954    8935.2698    8542.6617    9036.0322    167.44415    123.14007   -418.08909   -7537.2149 
30893000    108.50889   -9735.7727   -9322.0873   -9735.7727            0    7831.7423    24.710429    24.854947    22.717753    13952.707    7899.7418    6920.2139    8675.2711     38.86027   -172.49262    344.35703    -7728.438 
30894000    108.55786   -9732.0855   -9318.2134   -9732.0855            0    8410.4424    24.724309    24.729636     22.78258    13929.797    8088.7808    8160.3396    8982.2069   -86.583371    585.77963    323.24776   -7609.6169 
30895000    116.24766   -9739.5908   -9296.4017   -9739.5908            0    7598.5515    24.716258    24.692442    22.885424    13967.084    7188.6971    8222.4044    7384.5528   -238.25999    292.47492     976.9593   -7748.6102 
30896000    111.34223   -9744.6252   -9320.1379   -9744.6252            0    8570.3213    24.711604    24.714387    22.774088    13908.868    8839.0928    8985.8784    7885.9926   -162.15895    -1181.864   -148.62211   -7581.6776 
30897000    108.68945   -9740.5535   -9326.1798   -9740.5535            0    7511.3162    24.779121    24.745635    22.759445    13955.525     7236.554    8118.0766    7179.3181   -261.28074   -659.46918    325.94506    -7797.424 
30898000    109.18057   -9748.0715   -9331.8254   -9748.0715            0    8562.5789    24.711667     24.78116    22.690108    13895.054     8620.998    8586.3123    8480.4263   -791.21573   -356.16684    -331.9929   -7596.6606 
30899000    110.60088   -9738.8401   -9317.1791   -9738.8401            0    7529.2833    24.706021    24.752633    22.823952    13957.738    7425.8641    7417.0944    7744.8915   -349.66613    543.46831    503.98525   -7784.5235 
30900000    106.93085   -9732.1426   -9324.4734   -9732.1426            0    8531.5836    24.686868    24.726317    22.800864    13917.997    9365.8962    8267.6582    7961.1964   -340.40185   -537.72926   -98.083923   -7592.7351 
30901000    111.15251   -9736.1718   -9312.4077   -9736.1718            0    8094.3759    24.799178    24.781453    22.673448    13934.187    7594.1018     8229.931     8459.095   -149.06387   -116.35642    490.50083   -7667.5025 
30902000    110.13335   -9746.9773   -9327.0988   -9746.9773            0    8323.3871    24.658936    24.769383    22.801573    13926.896    9099.5546    7663.3569    8207.2498    270.05308   -190.47793    338.72439   -7636.5398 
30903000    115.27626   -9745.9696    -9306.484   -9745.9696            0    9196.7576    24.648831    24.728103     22.78926    13890.483    9883.8469    9011.9164    8694.5093   -141.37863    51.808789   -1175.1965   -7443.4191 
30904000    110.09418   -9740.5696   -9320.8404   -9740.5696            0    9226.1965    24.758451    24.765395     22.63852    13880.872    8107.2653    9522.1462    10049.178   -223.12263   -339.56651    183.27921    -7453.105 
30905000     106.9927    -9726.143    -9318.238    -9726.143            0    8670.9588    24.724316    24.701146    22.790369     13918.51    8694.5549    9146.8206     8171.501    103.29084    41.079377   -56.029492   -7558.1444 
30906000    103.54567   -9751.2429   -9356.4796   -9751.2429            0    8374.3243    24.743914    24.654088    22.791079    13903.438    8737.7474    8642.4945     7742.731   -261.98372   -85.980138    181.15312   -7658.4397 
30907000    109.21497   -9735.6354   -9319.2581   -9735.6354            0     8100.027    24.666926     24.71499    22.853874      13932.7    8437.8021    8566.7571    7295.5216    157.48201   -176.58275   -525.11537   -7673.3801 
30908000    111.50067    -9738.553   -9313.4616    -9738.553            0    8891.9643    24.606079    24.813446    22.756338    13894.146    9159.4529    8745.5118    8770.9284   -57.059895   -595.95936    -262.3156   -7511.6663 
30909000    110.97072   -9732.8444   -9309.7734   -9732.8444            0    7342.0124    24.738234    24.862758     22.73617    13984.125    7022.2014    6556.3519    8447.4838    145.14775    -604.8911    790.67294   -7812.4131 
30910000    108.15389   -9735.6257   -9323.2937   -9735.6257            0    7444.8054    24.723408    24.761297    22.805736    13961.299    7397.0074     7738.281    7199.1279   -669.22405     214.3435   -1150.1258   -7807.4478 
30911000    108.96978   -9755.2535    -9339.811   -9755.2535            0    8355.3367    24.708147    24.708152    22.798229    13918.151    7965.0887    8941.2519    8159.6694    104.16014   -32.818639   -47.500333   -7643.8284 
30912000     112.1784   -9747.4924   -9319.8171   -9747.4924            0    8279.4264    24.807113    24.704609    22.711661    13918.842    7926.7303    8516.5087    8395.0402   -477.95121   -1035.7454    263.98281   -7639.1595 
30913000    112.64558   -9740.5746   -9311.1182   -9740.5746            0    7761.2841    24.785747    24.716984    22.765675    13946.911    7517.0025    8250.6177     7516.232   -175.90572   -329.94245   -185.17568   -7732.4623 
30914000    111.52937   -9745.4886   -9320.2878   -9745.4886            0    9528.9168    24.619851    24.686017     22.81965    13869.009    10392.402    8732.3095    9462.0389   -312.19729   -256.13747    -317.0808   -7392.9189 
30915000    109.90004   -9738.5669   -9319.5779   -9738.5669            0    7771.5169    24.716064    24.748306    22.808864    13951.742    8145.6809    7238.1046    7930.7653    67.841002    -340.5347   -311.35095    -7738.293 
30916000     113.1801    -9741.581   -9310.0868    -9741.581            0    7467.4894    24.748422    24.834232    22.720314    13964.088    7017.9271    7041.5121     8343.029    519.32304   -629.27328    28.286802   -7789.3184 
30917000    106.60402   -9741.2837   -9334.8606   -9741.2837            0    9358.5787    24.681908    24.743511    22.725691    13878.967    9616.5914     9076.966    9382.1786    250.52982    272.14566   -497.71592    -7440.586 
30918000    111.43368   -9726.4514   -9301.6154   -9726.4514            0    7031.2756    24.782467    24.697036    22.876579     14001.69     6942.792    7070.6675    7080.3673    14.934799   -105.40856    184.04853   -7865.8269 
30919000    111.17122   -9735.9448   -9312.1094   -9735.9448            0    8857.6216     24.63554    24.771882    22.779609    13901.682     8979.516    8768.5885    8824.7602    4.8867909    65.169834    296.35346   -7516.2995 
30920000    108.53381   -9739.1214    -9325.341   -9739.1214            0    8152.4908     24.68056    24.782475      22.7844    13935.972    8425.7904     7676.702    8354.9801   -36.625133    410.57749    -816.7125   -7668.4136 
30921000    111.79155   -9750.3309   -9324.1305   -9750.3309            0    8269.1441    24.759581    24.748091    22.736314     13931.73    7451.3532    8201.0943    9154.9847    -286.1422   -884.67038   -255.41981   -7644.0059 
30922000     112.1357   -9748.8299   -9321.3175   -9748.8299            0    8302.9331    24.633861    24.738591    22.862629    13932.646    8923.6179    8652.1392     7333.042    138.70188   -658.10951   -520.43049   -7634.2167 
30923000    110.74566   -9738.8695   -9316.6566   -9738.8695            0    9190.7108    24.677674    24.699774    22.795574    13894.654    9627.7894    8974.9033    8969.4396   -283.26872   -584.02288    390.60327   -7454.2576 
30924000    108.45927   -9737.7886   -9324.2924   -9737.7886            0    8756.8168    24.736795    24.713455    22.739267    13901.234    8454.4136    8613.8585    9202.1784   -25.145511   -269.68463     346.3622   -7548.9771 
30925000    111.85127   -9749.3467   -9322.9186   -9749.3467            0    7570.5865    24.845907    24.780456    22.673111    13959.673    6211.7507    7935.6434    8564.3654   -268.64591    506.07376    482.63992   -7781.6417 
30926000    110.30805   -9739.8087   -9319.2641   -9739.8087            0    9374.8511    24.636589    24.686545    22.814144    13875.387     10688.37    8837.6452    8598.5384    119.56009   -336.96563    111.33251   -7422.1854 
30927000    109.79231   -9737.3641   -9318.7857   -9737.3641            0    7264.1688    24.767498    24.775346    22.779172    13977.831    6731.5776    7324.1282    7736.8007    -550.3683   -454.94851    621.34914   -7837.9679 
30928000    109.40688   -9735.2358   -9318.1269   -9735.2358            0    8551.3509    24.700166    24.733196    22.793398    13924.807    8505.0211    8623.1607    8525.8707   -543.33622    202.27696    169.27175   -7581.5269 
30929000     109.7834   -9745.7285   -9327.1841   -9745.7285            0    7775.3848    24.801891    24.698055    22.782176    13955.415    6866.2645    8561.6525    7898.2375    114.62921    54.338268    247.24262   -7744.6957 
30930000    108.18479   -9739.6494   -9327.1997   -9739.6494            0    8678.6106     24.75574    24.674214    22.764409    13905.148    8273.7018    8710.7523    9051.3777   -67.160299   -1062.3403   -50.100399   -7567.2441 
30931000    110.99395    -9740.597   -9317.4375    -9740.597            0    8614.9804    24.740915    24.758816    22.707907    13909.859    8434.0033    8202.5098     9208.428    327.34497   -495.90744    508.33502   -7569.7937 
30932000    110.42424   -9720.4457   -9299.4581   -9720.4457            0    8621.4509    24.667518    24.741813    22.829832    13933.483    9415.1288    8296.9069    8152.3169   -471.99793    8.9289495   -87.889561   -7547.5313 
30933000    109.99119   -9735.4646    -9316.128   -9735.4646            0    8729.5077    24.707473    24.695106    22.809972    13917.588    8345.7454    9319.6022    8523.1755   -346.88961    161.04433   -134.67004   -7544.2672 
30934000    113.70262   -9744.2794   -9310.7931   -9744.2794            0    8632.2971    24.722232    24.758396    22.720865    13907.051    8451.7567    8487.3515     8957.783   -111.07208   -1.2228319   -248.81161     -7559.99 
30935000    111.13877   -9719.8991   -9296.1874   -9719.8991            0    8196.8419    24.698528    24.798187    22.761024    13940.642     7644.402    8235.7877     8710.336   -776.48914    30.009437    350.48153   -7629.6877 
30936000    113.74229   -9729.5983   -9295.9608   -9729.5983            0    8719.1394    24.603265    24.759884    22.837695    13912.129    10289.105    8230.5067    7637.8066    56.683767    382.85419    655.79764   -7526.8985 
30937000    108.68166   -9754.6131    -9340.269   -9754.6131            0    8840.7136    24.666035    24.743111    22.785331    13906.217    8821.0559    8476.7659    9224.3189   -395.30581   -263.22714    1145.6646   -7547.3024 
30938000    111.59656   -9725.2326   -9299.7756   -9725.2326            0    7937.9125    24.744478    24.799388    22.726465    13946.048    7021.2606    8482.3821    8310.0948   -324.06629    -37.35506   -98.477664   -7685.2931 
30939000    109.50164   -9763.2304   -9345.7602   -9763.2304            0    7462.0087     24.74185    24.793506    22.754115    13958.221     7833.934    7065.9982    7486.0939   -403.10694   -733.46755   -140.94606   -7826.7465 
30940000    112.06551   -9719.5257   -9292.2809   -9719.5257            0    9158.5061    24.669652    24.714583    22.816176    13911.026    8981.9734    8654.7814    9838.7635    984.44949    104.67538     214.8484   -7434.2211 
30941000    112.55301   -9747.5757   -9318.4723   -9747.5757            0     7148.239    24.695423    24.757147    22.876414     13986.37    7532.7641    6359.5381    7552.4148   -545.10495    691.61601    206.94379    -7860.397 
30942000    113.98285   -9740.1014   -9305.5468   -9740.1014            0     8485.045    24.734843    24.729679    22.769065    13927.489    8169.0521    9129.0414    8157.0414   -28.090927     410.8851    146.74234   -7582.0801 
30943000    113.88238   -9753.0666   -9318.8951   -9753.0666            0    7740.7657    24.809496    24.778096    22.679501    13941.817    7036.6286    7618.2555    8567.4129   -156.24586    152.79498    470.77579   -7744.9876 
30944000    112.24818    -9744.912   -9316.9708    -9744.912            0    8252.3081    24.725661    24.726588     22.77561    13924.581    8148.8764     8106.547    8501.5008   -477.68788    272.63781   -658.82678   -7641.1273 
30945000    109.87832   -9736.6316   -9317.7253   -9736.6316            0    8542.3724    24.749509    24.661611    22.811914    13923.542     7533.979    9652.2858    8440.8523   -310.98426    705.70065    586.40046   -7583.1062 
30946000    112.64003   -9741.0451   -9311.6099   -9741.0451            0    8292.0061    24.653269    24.794081    22.798163    13935.494    9005.8217     7324.322    8545.8747   -567.21244   -727.45625   -179.89981   -7626.3849 
30947000    113.57423   -9752.3397   -9319.3429   -9752.3397            0    7762.3263     24.70941    24.896069    22.672832    13947.582    8369.9656      7116.09    7800.9234    -586.2032   -247.95256     573.3113    -7740.399 
30948000    113.37295   -9740.1368   -9307.9075   -9740.1368            0    8411.0727    24.723851    24.705286    22.795159    13923.506    8246.4909    8789.7121     8197.015   -324.77903   -38.100105    796.55462   -7599.9546 
30949000    112.44625     -9730.73   -9302.0337     -9730.73            0    8395.6224    24.708847    24.696481    22.829882    13931.287     8333.593    8758.3452     8094.929   -233.97658    428.53453   -87.974612   -7596.2654 
30950000    109.72709   -9737.8995   -9319.5698   -9737.8995            0    7988.9917    24.737244    24.794312    22.716917    13933.261    7548.1585    7878.4112    8540.4054   -88.461694   -230.47309    531.11904   -7696.1881 
30951000    113.41841   -9725.6895   -9293.2868   -9725.6895            0     8903.761    24.768452    24.714623     22.70221    13896.998    7997.1809    9837.7505    8876.3516   -253.53441    271.98661   -629.11402   -7488.7308 
30952000    109.24704   -9740.5827   -9324.0831   -9740.5827            0     8421.625    24.714193    24.717436    22.787413     13920.18    8364.2976    8688.4979    8212.0797    169.51849   -70.462176    36.559303    -7614.396 
30953000    109.72023   -9758.0293   -9339.7257   -9758.0293            0    7794.4893    24.646633    24.720135    22.894479    13948.875    8578.2341     7975.875    6829.3587   -300.37685    235.28964    203.62681   -7754.0925 
30954000     114.0797   -9741.1227   -9306.1989   -9741.1227            0    8980.1081     24.71832    24.744154    22.716813    13894.373     9346.781    8618.1563     8975.387   -273.36616   -397.75819    944.85102   -7486.5131 
30955000    110.99451   -9754.6538   -9331.4921   -9754.6538            0    8207.1523    24.705145    24.820708     22.71124    13926.514    8062.4326    7566.2098    8992.8146   -155.74372     1272.269     152.9715   -7664.5872 
30956000    108.52494   -9767.0562   -9353.3096   -9767.0562            0    8077.8899    24.694066    24.745759    22.782959     13922.06    8136.5066    8088.6119    8008.5511   -444.19399   -34.864053      65.2339   -7713.1832 
30957000    108.80182   -9733.1006   -9318.2984   -9733.1006            0    7792.2826     24.72404    24.742846    22.794436    13944.339    8111.0598    8501.3974    6764.3905   -188.90894    199.41836   -789.77152   -7733.6296 
30958000    109.01775   -9725.6638   -9310.0384   -9725.6638            0    8883.2397    24.667176    24.675323    22.840609    13902.406    8620.6202    10202.884    7826.2151    -124.8155   -306.52061    1.8188099   -7508.9409 
30959000      109.821   -9724.7518   -9306.0641   -9724.7518            0    8210.8451    24.749331    24.766081    22.765233    13953.812    7458.5661    8472.2965    8701.6728   -551.73754    349.40977    975.61188   -7635.1404 
30960000    111.91728   -9732.3264   -9305.6467   -9732.3264            0    9168.4068    24.667826    24.697061    22.790573    13884.537    10210.933     9123.954    8170.3338    34.711845   -855.09636    794.03458   -7449.1202 
30961000    110.82348   -9735.2533   -9312.7437   -9735.2533            0    7167.9716    24.747237    24.754115    22.826238    13983.261    7363.6799    7447.5649      6692.67   -358.11462    474.94673   -305.06958   -7850.9683 
30962000    110.09331    -9741.482   -9321.7561    -9741.482            0    8344.4991     24.71647    24.803607    22.698656    13915.584    8577.9343    8258.5985    8196.9645   -979.34163    2.4416415   -158.35027   -7628.2857 
30963000    109.44752    -9739.565   -9322.3011    -9739.565            0    8381.2191    24.646926     24.81223    22.762721    13920.433    8749.6467    7305.7292    9088.2813    -286.7234   -352.38585    70.825591   -7620.7859 
30964000    111.49599   -9735.4314   -9310.3579   -9735.4314            0    8116.2501    24.729688    24.730393     22.78925    13937.333     8113.561     7833.483    8401.7063    62.138412    853.58257    -294.8385    -7660.635 
30965000    107.31588   -9728.0996   -9318.9625   -9728.0996            0    8641.2787    24.714586    24.646331    22.835737    13909.792    8339.5951    9546.2413    8037.9996    140.54608   -47.339759    213.31209   -7565.9923 
30966000    110.86054   -9751.8149    -9329.164   -9751.8149            0    8705.5542    24.726196    24.687473    22.762273    13894.713     8864.449     9108.661    8143.5526    321.73854   -846.81099    421.92418   -7565.0693 
30967000     111.8959   -9738.2396   -9311.6414   -9738.2396            0    6957.5803      24.7998    24.760079    22.782883    13989.715    7296.8034    6448.0223    7127.9151    -149.8245   -1679.2777    1124.6975   -7892.1166 
30968000    108.12863   -9726.6593   -9314.4236   -9726.6593            0    8232.9843     24.69179    24.696252    22.851715    13934.854    8607.3079    8091.5107    8000.1343   -55.240995   -327.19123    373.46505   -7641.2708 
30969000     111.0459   -9760.0204   -9336.6628   -9760.0204            0    8198.7133    24.743954     24.75411    22.743836    13930.931     7225.716    8827.1801    8543.2437     104.3271   -123.68619    106.18351   -7670.9439 
30970000    111.06355   -9746.1897   -9322.7648   -9746.1897            0    7756.6326    24.746671    24.791003    22.731696    13945.777    7580.3987    7708.1188    7981.3804   -699.72563   -221.78091   -770.20595   -7745.1832 
30971000    108.75068   -9732.4545   -9317.8473   -9732.4545            0    8485.1616    24.731981    24.714966    22.779568    13924.013    8457.3964     8463.708    8534.3805     190.6946   -207.28511    178.47256   -7594.7872 
30972000     109.7435   -9738.2769   -9319.8847   -9738.2769            0    9468.4029    24.695569    24.652814    22.777956    13867.568    8495.3103     11231.65    8678.2484    -975.7584   -803.59736    547.49864   -7404.9546 
30973000     108.9511    -9735.729   -9320.3577    -9735.729            0    8361.1727    24.744416    24.729019    22.765914     13930.58    8579.5073     7769.264    8734.7469   -635.66017    290.31344    86.081084    -7621.675 
30974000    112.11063     -9718.62   -9291.2032     -9718.62            0    7790.2885    24.665724    24.764027    22.851126    13957.986    8597.2167    8132.4779    6641.1708   -127.59879   -119.90392    266.02294   -7705.3894 
30975000    108.86114    -9741.562   -9326.5337    -9741.562            0    7992.9089    24.677044    24.803117    22.756056    13928.244    7914.4272    7944.8921    8119.4073     240.5407   -510.14314   -252.05171   -7702.9409 
30976000    106.96014   -9720.9878    -9313.207   -9720.9878            0    9385.5354    24.649254    24.766623    22.753357    13890.442    9932.8523    8907.9608     9315.793   -22.081527      -330.54   -482.99289   -7411.9055 
30977000    112.42971   -9735.6502   -9307.0168   -9735.6502            0    8185.5182    24.658541    24.729489    22.879514     13951.77    8419.5704    8309.9098    7827.0743    324.92996   -3.9226922    282.21186    -7641.491 
30978000    113.63337   -9740.8626   -9307.6404   -9740.8626            0    8088.8729    24.714672    24.733338    22.795389    13934.282    7668.2262    8766.8367    7831.5556    168.87356   -37.197556    983.42358   -7663.8422 
30979000    106.96769   -9729.6853   -9321.8757   -9729.6853            0     8797.575     24.65188    24.853797     22.68954    13901.719    9021.1561    7602.4473    9769.1217    -245.3332   -179.79283   -80.779293    -7538.235 
30980000    107.40236   -9724.6763   -9315.2095   -9724.6763            0    8011.2231    24.680287     24.85114     22.73679     13945.23    9069.8836    6460.2512    8503.5346   -469.82046    289.31983   -180.99655   -7685.9121 
30981000    111.78565   -9728.2481   -9302.0703   -9728.2481            0    8107.1681    24.726598    24.757733    22.766347    13936.977    7982.2343    7990.5044    8348.7655   -527.68617    -146.0702    27.560076   -7654.2356 
30982000    112.83925   -9738.1381   -9307.9435   -9738.1381            0    8447.2662    24.687846    24.690497    22.843522    13924.387    8564.3621    9129.3166    7648.1199   -706.29199   -732.39699    126.89532   -7592.5326 
30983000     113.0544   -9736.8177   -9305.8027   -9736.8177            0    8270.2534    24.717028    24.727629    22.806946    13939.457    7612.1046    8288.3717    8910.2839    319.46671   -576.95771    46.735171   -7624.5208 
30984000    106.94407   -9712.8098   -9305.0902   -9712.8098            0    9270.1778    24.775432    24.709512    22.705724    13900.191    8209.5964    9530.9605    10069.977    197.11247   -46.446304    -107.8025   -7425.8395 
30985000    113.07636   -9757.4224   -9326.3237   -9757.4224            0    8940.3309    24.799415    24.710195    22.659231     13885.54    8135.1564    8863.2735    9822.5627   -192.99104   -547.87088    790.84971   -7515.8499 
30986000    108.69776   -9724.2512   -9309.8458   -9724.2512            0    7793.6966    24.724653    24.701564    22.848386    13954.369    7665.0625    8527.3361    7188.6913    43.573767   -770.80195    884.15134   -7723.7494 
30987000     107.9223   -9736.7834   -9325.3344   -9736.7834            0    8642.6829    24.676955    24.731023    22.802677    13916.162    9326.6185    8265.6928    8335.7374     -143.606    501.89672   -17.593441   -7571.2764 
30988000    115.64704   -9732.9746   -9292.0753   -9732.9746            0    8045.3898    24.674233    24.807619    22.768985    13937.101    8360.1664     7243.311    8532.6919   -506.50779   -101.20422    555.46214   -7656.7829 
30989000    109.01838    -9727.705   -9312.0772    -9727.705            0     7895.389    24.703017    24.844143     22.73161    13950.963    8023.8335     7322.052    8340.2816    441.42859    760.45898   -59.270703   -7705.6775 
30990000    110.25162   -9719.0703   -9298.7408   -9719.0703            0     8787.859    24.658572    24.795421    22.763206    13917.872     9360.128    8286.7098    8716.7391    681.51464   -438.96791    323.47953   -7514.9998 
30991000    114.57472   -9748.4083   -9311.5973   -9748.4083            0     7855.045    24.673967    24.729815    22.845375    13939.851    8197.3215    8371.2497    6996.5639    148.37595   -524.42324   -205.00885   -7714.6789 
30992000    113.39432   -9733.1773   -9300.8664   -9733.1773            0    8860.0454    24.723455    24.680222    22.791061    13906.658     8521.664    9560.7437    8497.7285     191.3798   -1065.0143      851.279   -7503.9222 
30993000    108.75922   -9727.5343   -9312.8945   -9727.5343            0    8794.4588    24.786137    24.656834    22.738147    13896.365    8063.7431    9837.4655    8482.1678    208.85282   -631.19397   -210.62702   -7530.5723 
30994000    110.88413   -9752.1848   -9329.4439   -9752.1848            0    7914.7664    24.739312    24.743133    22.775934    13941.789    7819.1148    8024.1694    7901.0149   -11.358628   -392.89631    1031.6951   -7720.1607 
30995000    107.44511   -9722.0989   -9312.4692   -9722.0989            0    8699.3114    24.753384    24.746999    22.702545    13906.943    9230.8316    8202.6237    8664.4789   -57.904772    202.19555    -296.8267   -7548.0879 
30996000    111.13246   -9743.6562   -9319.9686   -9743.6562            0    9013.7488    24.681652    24.733542    22.757136    13892.428     8964.401    9052.7628    9024.0827   -325.29172     130.0218    507.51709   -7493.7216 
30997000    116.05839   -9742.5349   -9300.0674   -9742.5349            0    7218.4414    24.694105    24.792075    22.844338    13985.717    7353.2869    7409.1138    6892.9235   -117.85182   -200.13849    1095.7571   -7827.7411 
30998000    105.61101   -9734.0156   -9331.3783   -9734.0156            0    9445.3087    24.664695    24.728817    22.749791    13875.751     9876.834    9604.4127    8854.6793   -527.76896    143.70765    531.19269   -7419.9917 
30999000    107.95954   -9761.6143   -9350.0233   -9761.6143            0    7048.7096    24.772673    24.785851    22.749538    13968.484    7110.9378    6484.2779    7550.9133   -274.87133    631.59291   -235.88009   -7914.0883 
31000000    112.33253   -9729.0441   -9300.7812   -9729.0441            0    8817.7349    24.708048    24.778961    22.699054    13897.264    8766.1656    8630.6106    9056.4285    251.47274   -82.940369    281.00407   -7513.6262 
Loop time of 444.977 on 64 procs for 250000 steps with 1920 atoms

Performance: 97.084 ns/day, 0.247 hours/ns, 561.827 timesteps/s
378.9% CPU use with 16 MPI tasks x 4 OpenMP threads

MPI task timing breakdown:
Section |  min time  |  avg time  |  max time  |%varavg| %total
---------------------------------------------------------------
Pair    | 72.25      | 74.534     | 77.05      |  17.9 | 16.75
Bond    | 1.5072     | 1.778      | 2.8566     |  25.1 |  0.40
Kspace  | 207.55     | 213.94     | 221.24     |  25.3 | 48.08
Neigh   | 0.17807    | 0.18912    | 0.20426    |   1.6 |  0.04
Comm    | 53.558     | 59.029     | 63.037     |  43.2 | 13.27
Output  | 0.92681    | 0.92713    | 0.92887    |   0.0 |  0.21
Modify  | 64.827     | 76.432     | 82.147     |  47.5 | 17.18
Other   |            | 18.14      |            |       |  4.08

Nlocal:        120.000 ave         123 max         117 min
Histogram: 1 4 0 2 0 2 3 0 2 2
Nghost:        4241.56 ave        4268 max        4212 min
Histogram: 1 2 1 2 1 2 2 2 1 2
Neighs:        43759.2 ave       44975 max       42153 min
Histogram: 2 0 2 3 0 0 1 3 3 2

Total # of neighbors = 700147
Ave neighs/atom = 364.65990
Ave special neighs/atom = 2.0000000
Neighbor list builds = 369
Dangerous builds = 0

unfix		3
unfix		2
unfix		1

write_data	data.final.${pid}
write_data	data.final.0
System init for write_data ...
PPPM initialization ...
  extracting TIP4P info from pair style
  using 12-bit tables for long-range coulomb (../kspace.cpp:340)
  G vector (1/distance) = 0.3751723
  grid = 30 30 30
  stencil order = 5
  estimated absolute RMS force accuracy = 0.0031901108
  estimated relative force accuracy = 9.6069238e-06
  using double precision FFTW3
  3d grid and FFT values/proc = 7920 1800
Last active /omp style is kspace_style pppm/tip4p/omp
WARNING: Not all mixed pair coeffs generated from mixing. Use write_data with 'pair ij' option to store all pair coeffs. (../write_data.cpp:312)

write_restart   restart.lmp.${pid}
write_restart   restart.lmp.0
System init for write_restart ...
PPPM initialization ...
  extracting TIP4P info from pair style
  using 12-bit tables for long-range coulomb (../kspace.cpp:340)
  G vector (1/distance) = 0.3751723
  grid = 30 30 30
  stencil order = 5
  estimated absolute RMS force accuracy = 0.0031901108
  estimated relative force accuracy = 9.6069238e-06
  using double precision FFTW3
  3d grid and FFT values/proc = 7920 1800
Last active /omp style is kspace_style pppm/tip4p/omp
Total wall time: 0:07:25
