LAMMPS data file via write_data, version 30 Jul 2021, timestep = 26500000

1008 atoms
2 atom types
672 bonds
1 bond types
336 angles
1 angle types

-3.1495279160317082 14.759526915585916 xlo xhi
-0.05509480465638816 22.63509380465532 ylo yhi
0.04491744984703239 19.185080550144008 zlo zhi
0.07538578311300859 -6.793038549503228 0.10590672744616689 xy xz yz

Masses

1 1.008
2 15.999

Pair Coeffs # lj/cut/tip4p/long/omp

1 0 0
2 0.21084 3.1668

Bond Coeffs # harmonic/omp

1 450 0.9572

Angle Coeffs # harmonic/omp

1 55 104.52

Atoms # full

21 7 1 0.5897 1.1586029892612526 2.359093698346042 0.9962801081899085 0 0 0
55 19 2 -1.1794 -0.5473497838755161 4.084990710457555 3.4393710533249378 0 0 0
56 19 1 0.5897 -1.1125686329284434 3.4876133165233387 2.949579713004853 0 0 0
57 19 1 0.5897 0.12880412401024266 4.343394261371595 2.8130609430331557 0 0 0
121 41 2 -1.1794 -2.56124758486131 2.345551150817302 2.4103593718588505 1 0 0
122 41 1 0.5897 -2.46446128619392 1.9965338948942892 1.524379091188413 1 0 0
86 29 1 0.5897 -2.550781952713468 1.7049685100250325 4.0612573115473465 1 0 0
31 11 2 -1.1794 1.3137853538159199 1.0677562121252868 2.3101164216327152 0 0 0
32 11 1 0.5897 1.194620380736609 1.4216279273751473 3.19143298507415 0 0 0
123 41 1 0.5897 -3.4488967488233224 2.703026002964789 2.431785650863431 1 0 0
46 16 2 -1.1794 1.8742599564411817 4.966148488768232 2.3098678704380777 0 0 0
33 11 1 0.5897 0.584288321947712 0.4587014870396997 2.195385570066177 0 0 0
18 6 1 0.5897 4.967438781140785 4.105352289754687 0.2994875302505009 0 0 0
47 16 1 0.5897 1.929778958033384 5.403398897071418 1.4601570489225828 0 0 0
158 53 1 0.5897 -4.339655929705438 4.44907389082378 4.245431120508844 1 0 0
602 201 1 0.5897 -0.5450000347533308 5.37003525535855 0.3622388871879085 1 0 1
6 2 1 0.5897 3.510532247659749 1.7541044599940812 4.47229411042813 0 0 0
527 176 1 0.5897 4.181094508651023 1.954185422430883 0.4435531659696619 0 0 1
19 7 2 -1.1794 1.2655998717941221 2.7557077162587738 0.13169510786650535 0 0 0
71 24 1 0.5897 3.0117148025974556 0.673949324569715 1.9553358291108105 0 0 0
70 24 2 -1.1794 3.866979425467889 0.46548601912642185 1.5795437819450902 0 0 0
54 18 1 0.5897 2.87796315413038 3.833889077522711 3.0036785341712777 0 0 0
52 18 2 -1.1794 3.4662174243988604 3.237818817292963 3.4673160150592994 0 0 0
78 26 1 0.5897 0.32816653221312464 2.8085419924455763 4.4763190643954465 0 0 0
163 55 2 -1.1794 -1.8306319396823105 1.3670935560760673 0.059273544650772454 1 0 0
53 18 1 0.5897 4.146335347811172 3.02631014530253 2.8278996114633923 0 0 0
16 6 2 -1.1794 5.49757637604603 4.854476051417656 0.5715966669254822 0 0 0
101 34 1 0.5897 -2.546915822756987 4.544548010069093 0.11091058014418471 1 0 0
157 53 2 -1.1794 -3.797780154410156 5.057603398164352 4.747726558838846 1 0 0
76 26 2 -1.1794 0.8619417779398244 2.0817405860336864 4.797490853952379 0 0 0
134 45 1 0.5897 -2.5118020022526437 2.696282477987918 6.2087813661668845 1 0 0
135 45 1 0.5897 -1.8121183648114227 3.811731499314171 6.955863180561515 1 0 0
60 20 1 0.5897 2.9882392399440434 3.6354550083345702 6.630816844142883 0 0 0
34 12 2 -1.1794 -0.24457404922726367 1.5399133612935134 7.284570571874229 0 0 0
35 12 1 0.5897 -0.038174312133592014 2.071060457678555 8.05363444418037 0 0 0
36 12 1 0.5897 -1.1274687136446628 1.2096516423656665 7.450868026761628 0 0 0
159 53 1 0.5897 -3.2987310742215685 4.498838614366011 5.343571597038215 1 0 0
669 223 1 0.5897 -5.51550267238965 1.9441321585752815 9.096971147646975 1 0 0
124 42 2 -1.1794 -5.142956399698479 2.9210351076001935 7.727781188185787 1 0 0
58 20 2 -1.1794 2.2003476522951004 4.014834354924454 6.241511738198795 0 0 0
59 20 1 0.5897 1.8520810983065168 3.3216383033749786 5.680795345280619 0 0 0
522 174 1 0.5897 1.9262717265916596 5.5441998222821365 9.146152551478194 0 0 0
43 15 2 -1.1794 -0.3486571823924347 4.83860151376645 7.267698052880945 0 0 0
126 42 1 0.5897 -4.304242680911898 3.216568618556601 7.373586303240916 1 0 0
45 15 1 0.5897 0.5192943849920608 4.519980758107832 7.020052127925743 0 0 0
133 45 2 -1.1794 -2.680393320883503 3.499696821224331 6.701010889201938 1 0 0
4 2 2 -1.1794 3.757480318933059 1.0370761862090865 5.056424744929226 0 0 0
44 15 1 0.5897 -0.2820850970997584 5.010707631679016 8.20691117228896 0 0 0
402 134 1 0.5897 0.9030618434884214 0.16232839360102738 7.929097840312531 0 1 0
401 134 1 0.5897 2.0336545244044997 0.23605572982754525 8.933191714643336 0 1 0
77 26 1 0.5897 0.37257593492556573 1.736037686996592 5.543983857730972 0 0 0
69 23 1 0.5897 -2.707297849392113 1.1362359431193012 8.760159035235535 0 0 0
67 23 2 -1.1794 -2.4725151797707476 0.3753529570220124 8.229020539013367 0 0 0
98 33 1 0.5897 -4.057636496085319 5.212855831564428 8.62889555468906 1 0 0
5 2 1 0.5897 3.082958682323092 0.3720267005853605 4.918607383206901 0 0 0
606 202 1 0.5897 -6.072008613753148 4.642515312042205 9.542591027340377 1 0 0
11 4 1 0.5897 2.336987606806847 5.58983096017951 5.293929199590379 0 0 0
97 33 2 -1.1794 -4.139823393288536 4.887250426109009 9.525265095739215 1 0 0
24 8 1 0.5897 0.7534246554024091 3.604528866685456 9.6110772603834 0 0 0
22 8 2 -1.1794 0.050482269468400176 2.9566112838850196 9.56261451039789 0 0 0
85 29 2 -1.1794 -2.701584910183927 1.289332036596915 4.910239871283303 1 0 0
87 29 1 0.5897 -3.648216714517573 1.151917638724053 4.945387781440735 1 0 0
574 192 2 -1.1794 0.37322493628827 0.7741852159839636 11.175500308918537 0 0 0
667 223 2 -1.1794 -5.7278641898309814 1.2599808552044298 9.731924393976344 1 0 0
560 187 1 0.5897 -4.94203996599914 3.6776275621982824 12.683705210110523 0 0 0
576 192 1 0.5897 -0.2967638621712805 0.813175313439039 11.857967722927306 0 0 0
520 174 2 -1.1794 2.1580409288075835 4.805760398481345 9.709459247707699 0 0 0
525 175 1 0.5897 -1.9251458866685383 2.7893552320310517 10.050085368567311 0 0 0
627 209 1 0.5897 -7.045892357491493 2.9500232357898706 12.374231623214028 1 0 0
23 8 1 0.5897 0.378316442075707 2.2088867747704906 10.062371203688942 0 0 0
535 179 2 -1.1794 -2.0942322358364702 0.9278041450014819 12.242830238754273 0 0 0
536 179 1 0.5897 -2.360724652032939 1.39316470331296 13.035636197230016 0 0 0
537 179 1 0.5897 -2.349163019682633 1.509025014079533 11.526247157605672 0 0 0
662 221 1 0.5897 -7.413052595008979 4.536954895586171 14.280108817090767 1 0 0
625 209 2 -1.1794 -6.239014860676615 2.51010129749227 12.106643309400217 1 0 0
556 186 2 -1.1794 0.6362695768415039 3.726943033602345 13.044942570545297 0 0 0
561 187 1 0.5897 -3.7037553585246146 3.6259313217170233 13.553139551684591 0 0 0
668 223 1 0.5897 -6.018628098644113 1.7362592918726425 10.50957472895009 1 0 0
558 186 1 0.5897 -0.15739491729528154 4.029627115896366 12.603644392307432 0 0 0
559 187 2 -1.1794 -4.277200448445651 4.23511143082572 13.087996545690116 0 0 0
550 184 2 -1.1794 -1.7100993663068724 4.882583025754827 11.910600944131794 0 0 0
552 184 1 0.5897 -2.6589142613695698 4.767781418236426 11.963482760315499 0 0 0
626 209 1 0.5897 -6.077929449988742 1.8646250374129432 12.794917023298815 1 0 0
557 186 1 0.5897 0.4230276865790925 2.8424192851547674 13.3424224704753 0 0 0
587 196 1 0.5897 -1.121713728030453 5.651410251803512 10.472106283165338 0 0 0
523 175 2 -1.1794 -2.813618381302041 2.439364032043199 10.116134887278676 0 0 0
986 329 1 0.5897 -4.628995076752595 0.08567002566045173 10.664852481450469 1 1 0
589 197 2 -1.1794 -5.970619872555853 0.8047157828001021 14.333722165689 1 0 0
551 184 1 0.5897 -1.4958692688043724 5.453276853343329 12.64857028287701 0 0 0
575 192 1 0.5897 1.065117907292433 0.2284884244269278 11.549376103183503 0 0 0
524 175 1 0.5897 -3.378439225149391 3.1687700911229477 9.860726015857534 0 0 0
591 197 1 0.5897 -5.239149937254175 0.18811638358489352 14.365203042511965 1 0 0
547 183 2 -1.1794 -3.9059091267338726 5.0680501037857635 16.742948073658653 0 0 0
581 194 1 0.5897 -3.2511949969691853 2.105081477925651 15.25527464334731 0 0 0
548 183 1 0.5897 -3.865800429156085 5.690418411850956 16.016746859080826 0 0 0
629 210 1 0.5897 -8.65485347700172 3.4080290431372644 16.68120182070922 1 0 0
582 194 1 0.5897 -2.0991444528074794 2.9748799895161175 14.798926997651007 0 0 0
563 188 1 0.5897 -1.05701411509685 4.785874152719465 15.250265901986559 0 0 0
639 213 1 0.5897 -5.87463162293197 3.905336446940661 15.190537558488398 1 0 0
661 221 2 -1.1794 -6.828277400663861 5.251285630016547 14.533115917929745 1 0 0
538 180 2 -1.1794 -3.2889964693531786 1.1557229132138522 16.950698390438575 0 0 0
539 180 1 0.5897 -3.113035443090898 1.8761226780261422 17.555898437745796 0 0 0
20 7 1 0.5897 -5.829566115952044 2.1898007213799664 18.660657614876776 0 0 -1
540 180 1 0.5897 -4.223238199457776 0.9761537904106632 17.05642518615823 0 0 0
638 213 1 0.5897 -6.393825427712573 2.979323920839306 16.26985361910606 1 0 0
549 183 1 0.5897 -4.5291445614066435 4.401562970790876 16.453749057181277 0 0 0
562 188 2 -1.1794 -1.2410933684790493 4.198376719063645 15.983229352436421 0 0 0
630 210 1 0.5897 -8.348244629472722 2.0458076970231147 16.096214589733258 1 0 0
564 188 1 0.5897 -1.9861621999921253 4.599282896814913 16.43078699053556 0 0 0
637 213 2 -1.1794 -5.607510029563217 3.1882448602387727 15.765655430851655 1 0 0
164 55 1 0.5897 -8.375861362770948 2.1219370800511443 18.54080971896846 1 0 -1
628 210 2 -1.1794 -8.057403652597579 2.6649486886491753 16.765748994590993 1 0 0
165 55 1 0.5897 -9.230889663523527 0.889268681066246 18.74469726638172 1 0 -1
571 191 2 -1.1794 -5.726262808549125 0.5122859630900163 17.75202928727912 0 0 0
590 197 1 0.5897 -5.643223836427774 1.5882215993367799 14.775509801405153 1 0 0
603 201 1 0.5897 -6.81820238155368 4.182211889503837 18.91259877309107 1 0 0
528 176 1 0.5897 -3.7294828000276077 2.9593905514451757 19.099629320455513 0 0 0
508 170 2 -1.1794 0.4025563996436068 1.348272495382129 14.501618054718547 0 0 0
593 198 1 0.5897 -7.8158823689773 0.7280713201638519 14.535376342158237 1 0 0
580 194 2 -1.1794 -2.8327858469568445 2.4559856809165574 14.469117128592734 0 0 0
526 176 2 -1.1794 -2.7854682614250663 2.8189844100815415 19.02667668646783 0 0 0
601 201 2 -1.1794 -7.549389995112886 4.797784609273503 18.860817739363725 1 0 0
289 97 2 -1.1794 -2.638841083009699 10.013177167151097 2.237043735510103 1 0 0
255 85 1 0.5897 -2.284095527751873 8.765725127796648 3.763803238323275 1 0 0
146 49 1 0.5897 -1.449208469619961 6.505502736678896 1.8403671578804708 1 0 0
147 49 1 0.5897 -0.9733324001829406 7.49724060872412 0.800133211262603 1 0 0
332 111 1 0.5897 -2.174491073354815 9.291976726851695 0.6892913975130442 1 0 0
145 49 2 -1.1794 -0.6597303236271808 6.820731344508106 1.40037706250746 1 0 0
112 38 2 -1.1794 -3.1551218647232457 6.445177901833987 2.532065514260315 1 0 0
291 97 1 0.5897 -3.457201567775757 10.317003664678102 2.629660812447802 1 0 0
290 97 1 0.5897 -1.99489648593071 10.678781014141466 2.479053033043126 1 0 0
188 63 1 0.5897 0.9474468569058434 9.831370732050226 1.2337248405300747 0 0 0
200 67 1 0.5897 0.5547771090757814 7.874459213865697 2.3352899488586134 0 0 0
199 67 2 -1.1794 1.0170063825867652 8.670197598460675 2.598758928419644 0 0 0
187 63 2 -1.1794 1.092389691256857 10.240987271879783 0.3808163187840635 0 0 0
696 232 1 0.5897 4.392649189976662 11.004259950617119 0.3265499533135297 0 0 1
114 38 1 0.5897 -3.4441994662899673 5.888607986672405 1.8089802570403097 1 0 0
220 74 2 -1.1794 3.526897206848921 10.604865438579333 3.5684973107710873 0 0 0
245 82 1 0.5897 1.1429905126179847 9.674142136771264 4.142930823710879 0 0 0
9 3 1 0.5897 -0.7079407579290624 5.764168692617007 4.378898707408659 0 0 0
238 80 2 -1.1794 3.647871059729077 7.932326825554906 1.6697048565663912 0 0 0
239 80 1 0.5897 3.773731722320477 8.753493976242703 1.194118851231292 0 0 0
254 85 1 0.5897 -1.6136270012082667 7.849451627937222 4.765302613746573 1 0 0
240 80 1 0.5897 3.294548256093014 7.328389904691243 1.0165391386210136 0 0 0
201 67 1 0.5897 1.927477475403605 8.512792130857278 2.3488393766749724 0 0 0
189 63 1 0.5897 2.0116931330101284 10.507261658228359 0.39556904114131797 0 0 0
694 232 2 -1.1794 3.845998869511904 10.219319004256066 0.2900125898082808 0 0 1
113 38 1 0.5897 -3.223469740438211 5.886954458364128 3.3066756753400304 1 0 0
221 74 1 0.5897 4.2296859637097395 10.44085589955558 2.9397350623476664 0 0 0
174 58 1 0.5897 3.5375741880301437 9.194876106697016 4.605446898286102 0 0 0
253 85 2 -1.1794 -2.2076226077760674 8.597480384926715 4.702987912827113 1 0 0
10 4 2 -1.1794 2.2216048504908903 6.365234122455174 4.7445845873166475 0 0 0
222 74 1 0.5897 2.9523802985450036 11.231283318500429 3.1282446936793007 0 0 0
224 75 1 0.5897 -0.4576935482964557 11.288161903470156 3.995446956793312 0 0 0
48 16 1 0.5897 2.067904082773648 5.653978103846995 2.9467259332634548 0 0 0
12 4 1 0.5897 1.2740201313869166 6.495878771474183 4.70981098538206 0 0 0
191 64 1 0.5897 0.5407797882776233 9.85721789901065 8.641571505414712 0 0 0
258 86 1 0.5897 -5.00763508468209 9.01616574131565 5.880796973992538 1 0 0
109 37 2 -1.1794 -4.229034780306675 6.398488240309034 7.168822897401362 1 0 0
111 37 1 0.5897 -5.129479581989374 6.620625259017871 7.4055664352612185 1 0 0
293 98 1 0.5897 -4.072360658886877 10.486437718526114 7.080926626480649 1 0 0
837 279 1 0.5897 -6.153026311211365 8.37273886300026 9.014286375615477 1 0 0
292 98 2 -1.1794 -5.002019479221419 10.318894550296513 7.235477618519164 1 0 0
588 196 1 0.5897 -1.1476967799652344 6.582558781381187 9.278629205319284 0 0 0
246 82 1 0.5897 0.5606934760142099 9.508941188764402 5.530521197704715 0 0 0
294 98 1 0.5897 -5.03387427885759 9.93139870295553 8.110169501111328 1 0 0
110 37 1 0.5897 -4.293380542443762 6.052459362774463 6.278718862991573 1 0 0
64 22 2 -1.1794 2.020204774096957 6.8957346850706 7.957391446423143 0 0 0
244 82 2 -1.1794 0.7785267454735618 10.171580501831913 4.874953495634401 0 0 0
202 68 2 -1.1794 0.26589377352237475 8.718973586821626 7.104037773999746 0 0 0
203 68 1 0.5897 -0.5558705672537303 8.358887156772163 7.437633511341348 0 0 0
204 68 1 0.5897 0.9200371920838109 8.049443150519156 7.304300633183371 0 0 0
8 3 1 0.5897 -0.5298251455578797 6.258877157873789 5.798500469819521 0 0 0
235 79 2 -1.1794 -2.071118115722292 7.728052488139321 8.339134097275641 0 0 0
236 79 1 0.5897 -2.8884973064696893 7.4380913063247505 7.934098443686447 0 0 0
237 79 1 0.5897 -2.322886564165507 8.478757051591874 8.876939274490411 0 0 0
302 101 1 0.5897 -2.0384131865245387 9.908769387559738 6.129975876322232 1 0 0
301 101 2 -1.1794 -2.361503221581277 10.624508073799477 6.677241396657347 1 0 0
173 58 1 0.5897 3.2589354164933306 7.775978275461349 5.054050447428629 0 0 0
65 22 1 0.5897 2.3023599053750257 7.5698694899625965 8.57555287107777 0 0 0
228 76 1 0.5897 1.7533951925935405 11.22289734731599 5.914553384124103 0 0 0
66 22 1 0.5897 2.831338981182352 6.582410597122128 7.557333449563921 0 0 0
7 3 2 -1.1794 -0.43059417037087533 6.527676588608343 4.885196881191646 0 0 0
257 86 1 0.5897 -4.061173308653579 8.316179574425027 4.929032065153765 1 0 0
172 58 2 -1.1794 3.738739061790101 8.567062395270337 5.299492295500741 0 0 0
835 279 2 -1.1794 -5.670725490400022 8.983388616517983 9.571706038496243 1 0 0
303 101 1 0.5897 -1.5719118702460277 11.086481887706766 6.958976786989036 1 0 0
190 64 2 -1.1794 0.43766764844969996 10.133983189284764 9.552021949373225 0 0 0
513 171 1 0.5897 -4.191295688664534 5.772784232177868 14.01136832307917 0 0 0
794 265 1 0.5897 -5.245656982039266 10.845476991210864 12.228512334723225 1 0 0
514 172 2 -1.1794 -1.1379282407121947 6.292804954609696 14.18061985719189 0 0 0
192 64 1 0.5897 1.0924860117262725 10.822286577364869 9.669239045485192 0 0 0
742 248 2 -1.1794 0.6068216252193008 8.04828054397737 11.2948380457666 0 0 0
724 242 2 -1.1794 0.6503466577826549 10.6331232702789 13.067919688038286 0 0 0
616 206 2 -1.1794 -6.561808453570752 6.390321331705389 12.021977696503862 1 0 0
693 231 1 0.5897 -2.2990732505267735 9.708277405376222 10.852621244562455 0 0 0
649 217 2 -1.1794 -4.2167843316614775 7.213690838564669 10.97175221190133 1 0 0
650 217 1 0.5897 -3.5656627158438865 7.5659195886914485 11.578527488782736 1 0 0
651 217 1 0.5897 -4.9400001806707134 6.932714200708475 11.532295568295707 1 0 0
795 265 1 0.5897 -5.982357229954589 10.085483684484284 11.146146652270351 1 0 0
744 248 1 0.5897 0.16855231486704048 7.403682937182195 10.739285094518001 0 0 0
793 265 2 -1.1794 -6.0173421247171355 10.299350763103734 12.078451118402144 1 0 0
678 226 1 0.5897 0.35840798988748546 9.168138942676807 14.068336885768954 0 0 0
759 253 1 0.5897 -5.812975130929569 9.072766081164838 13.398758293035053 1 0 0
703 235 2 -1.1794 -2.057750698605525 8.4008026786913 12.171806051502127 0 0 0
704 235 1 0.5897 -1.1333536084098057 8.161857207875364 12.103949806132174 0 0 0
705 235 1 0.5897 -2.124485623876409 8.86717608720276 13.0049877343312 0 0 0
743 248 1 0.5897 0.6301242543848908 8.845344904904923 10.76522476298969 0 0 0
836 279 1 0.5897 -5.028268602664919 8.437865468718764 10.0255184020757 1 0 0
726 242 1 0.5897 0.08912999989663906 11.095489667936645 12.445387149156403 0 0 0
691 231 2 -1.1794 -2.3181372382270404 10.056640902938632 9.961263815365639 0 0 0
750 250 1 0.5897 -3.1904819345240494 10.560756639361218 14.107020560247838 0 0 0
618 206 1 0.5897 -6.703777467996215 5.834729841907775 11.255597701675372 1 0 0
757 253 2 -1.1794 -5.748165986939014 8.597916283463073 14.227375553586445 1 0 0
692 231 1 0.5897 -1.4175007293253428 10.3333935946177 9.792447846482423 0 0 0
586 196 2 -1.1794 -0.556736653496253 6.047846101132646 9.80886310943273 0 0 0
617 206 1 0.5897 -7.229150055915223 7.072809398739829 11.950527391369155 1 0 0
515 172 1 0.5897 -1.9686872899968533 6.759715288673466 14.270217378780702 0 0 0
516 172 1 0.5897 -0.4697125520899341 6.9583573953157005 14.344355243333105 0 0 0
663 221 1 0.5897 -6.669409716214189 5.730849722271562 13.720069832752696 1 0 0
725 242 1 0.5897 0.911653432378043 11.303499397764897 13.699200423307936 0 0 0
99 33 1 0.5897 -4.1652810777777525 5.676737606631089 10.065880113940773 1 0 0
797 266 1 0.5897 -7.059365773701768 10.69176514210964 16.930126397567534 1 0 0
695 232 1 0.5897 -2.794370165135314 9.966970106246292 18.55582534816316 0 0 0
741 247 1 0.5897 -6.029713744610474 8.929900820732245 18.112033954440314 0 0 0
613 205 2 -1.1794 -7.7634286852170415 6.4849700718457175 16.789888002186828 1 0 0
740 247 1 0.5897 -6.400309092795393 7.793102938486345 17.183491782032156 0 0 0
568 190 2 -1.1794 -1.374352687054314 7.112938386612024 17.859840685186825 0 0 0
333 111 1 0.5897 -8.403427825777557 9.47813411910357 18.426915619705177 1 0 -1
511 171 2 -1.1794 -3.9204318347845737 6.56319021783585 14.478396008021797 0 0 0
758 253 1 0.5897 -5.345822848180392 9.222438252041663 14.83094963866769 1 0 0
748 250 2 -1.1794 -2.521678862403018 9.970202842918162 14.453773761925877 0 0 0
569 190 1 0.5897 -1.533069001295245 6.339315153327873 18.40082154140454 0 0 0
749 250 1 0.5897 -2.8873159714459042 9.651561074521549 15.279010377888845 0 0 0
798 266 1 0.5897 -8.14542758353541 9.922445121316324 16.208641122960756 1 0 0
615 205 1 0.5897 -7.476573789015038 6.08955825080567 15.966787793228589 1 0 0
796 266 2 -1.1794 -8.00624422805907 10.552312287448588 16.915803141800204 1 0 0
706 236 2 -1.1794 -3.0467481915203036 8.986651244466655 17.04739954882168 0 0 0
707 236 1 0.5897 -3.924586647908299 8.67032476449385 17.26088692335538 0 0 0
708 236 1 0.5897 -2.4854365259803046 8.216686065255498 17.13883056468572 0 0 0
739 247 2 -1.1794 -5.646977257952553 8.247425920926705 17.560753692103802 0 0 0
614 205 1 0.5897 -7.694848869691072 5.778539733629888 17.432215146852513 1 0 0
570 190 1 0.5897 -0.4720741452571273 7.0126805611084055 17.556572437287507 0 0 0
805 269 2 -1.1794 -5.423382623438485 10.850785456319826 15.862085725113316 1 0 0
84 28 1 0.5897 -4.2783205641534705 5.80819716494956 18.364986294094955 0 0 -1
83 28 1 0.5897 -5.066660006690372 7.068857515324621 18.649877341122234 0 0 -1
762 254 1 0.5897 -7.489640013064022 8.652831356904363 14.603596355091147 1 0 0
676 226 2 -1.1794 0.5273225447126855 8.393938416006485 14.605388185681727 0 0 0
731 244 1 0.5897 -1.6128216779330442 11.132360651118658 15.411165503958795 0 0 0
82 28 2 -1.1794 -4.582142424974539 6.36519353876102 19.081639310815795 0 0 -1
331 111 2 -1.1794 -8.617854932636007 8.85606162398157 19.122151748130882 1 0 -1
732 244 1 0.5897 -0.5030945537422546 11.342691191392406 16.419218007738138 0 0 0
512 171 1 0.5897 -4.685987412619863 7.136720365748439 14.443652567446781 0 0 0
280 94 2 -1.1794 -3.299938029568516 14.03362028814456 2.6669564117480102 1 0 0
281 94 1 0.5897 -3.3413847196639157 13.783643406649743 3.5900103587605643 1 0 0
282 94 1 0.5897 -2.386257902709896 14.281933736031275 2.5263691387264675 1 0 0
500 167 1 0.5897 -1.83383315930736 15.90936538148764 0.5825130788373204 1 0 0
313 105 2 -1.1794 -0.8373798175022684 14.894869726807269 1.6987231613736584 1 0 0
315 105 1 0.5897 -0.4812284760518706 14.085659536181135 1.3319228097909892 1 0 0
216 72 1 0.5897 0.8760445942577499 12.429345225314805 2.801174673421953 0 0 0
223 75 2 -1.1794 -0.8251183033874923 11.94779275489228 3.4070698320868096 0 0 0
225 75 1 0.5897 -1.0503797829456785 12.681177158579398 3.9794135667206794 0 0 0
314 105 1 0.5897 -0.0754689659782537 15.353680852461355 2.052612966856645 1 0 0
250 84 2 -1.1794 2.470226000434968 14.014290251190548 0.3456471992323295 0 0 0
423 141 1 0.5897 -2.2298738067352764 16.843879650890706 4.045794863650177 1 0 0
252 84 1 0.5897 3.021311095248211 14.617414527516283 0.8444236613579962 0 0 0
407 136 1 0.5897 4.296928198383352 15.552476358116387 2.1810374729883595 0 0 0
499 167 2 -1.1794 -2.3644914531501993 16.55641650588097 0.11771284849351717 1 0 0
214 72 2 -1.1794 1.8155155751644152 12.518064733797875 2.6407293379193426 0 0 0
406 136 2 -1.1794 3.4580202739268904 15.924159237710551 1.9084011053789993 0 0 0
180 60 1 0.5897 2.030883471923782 13.732860528931162 4.041315867663026 0 0 0
215 72 1 0.5897 1.8741736796337136 13.045936616550215 1.8443633734778293 0 0 0
367 123 2 -1.1794 0.9874695304029579 16.616954412208404 2.7381763545098323 0 0 0
408 136 1 0.5897 3.6938880029724066 16.67509327777193 1.3636095997265754 0 0 0
368 123 1 0.5897 1.9030743241081858 16.35391168295221 2.6450209040734265 0 0 0
369 123 1 0.5897 0.9213741658248695 16.942033842448797 3.6360063748393094 0 0 0
771 257 1 0.5897 0.06178452488527908 11.799282047227816 0.3679704969845914 1 0 1
770 257 1 0.5897 -1.3692132930974916 12.292458829131052 0.33799396215493566 1 0 1
184 62 2 -1.1794 5.40946913607282 12.35829450235952 0.6565969144372465 0 0 0
306 102 1 0.5897 -4.403937787846404 11.663231996719517 4.070132420052356 1 0 0
769 257 2 -1.1794 -0.4645006644113274 12.587791397373097 0.2355321495197601 1 0 1
404 135 1 0.5897 -1.7248456510090344 15.842969771194438 8.042734501153145 0 0 0
326 109 1 0.5897 -3.2097223445508334 12.059815092546652 5.756782708692812 1 0 0
1004 335 1 0.5897 -5.0227588792383155 16.58265915707803 9.23351392965057 1 0 0
327 109 1 0.5897 -3.9726051509455456 13.366751256458516 5.800272101088973 1 0 0
405 135 1 0.5897 -2.5594782334840165 16.33563021971872 9.205634754149186 0 0 0
211 71 2 -1.1794 -0.5885651202797826 12.354405036554779 7.454347695465865 0 0 0
227 76 1 0.5897 1.2391675376463178 12.069816475508713 7.059086222714017 0 0 0
213 71 1 0.5897 -0.7598896543952773 12.902739886960921 6.688660695292767 0 0 0
212 71 1 0.5897 -0.8101409477158348 12.909864014916261 8.201674132949943 0 0 0
421 141 2 -1.1794 -2.2364182428857204 16.318703407465943 4.846071303723375 1 0 0
232 78 2 -1.1794 2.0043958801811375 14.472641469618495 8.396486789814066 0 0 0
176 59 1 0.5897 -1.2350479988956442 14.864941262709104 5.061479142932704 0 0 0
234 78 1 0.5897 1.2885543081414959 15.012226264861134 8.060792297227184 0 0 0
370 124 2 -1.1794 0.07389265780087184 16.241781666099456 7.588938878232392 0 0 0
179 60 1 0.5897 2.039800546476102 13.238153032986226 5.472081800084466 0 0 0
277 93 2 -1.1794 -4.5966159823360275 14.022334418564872 7.481649828494833 1 0 0
278 93 1 0.5897 -4.086296719608511 14.741606227581826 7.8537661002818755 1 0 0
690 230 1 0.5897 1.9350524034155772 13.047718092371719 9.592795065546795 0 0 0
756 252 1 0.5897 -1.5862417487004166 14.387206010874147 9.447428675809515 0 0 0
403 135 2 -1.1794 -2.4889788450616126 15.619722989549294 8.574221247437302 0 0 0
226 76 2 -1.1794 2.0354086835226175 11.859614694013375 6.571254957228743 0 0 0
267 89 1 0.5897 -4.161611523367714 12.675241819502336 8.746881413591149 1 0 0
279 93 1 0.5897 -5.505399740192068 14.241115060287687 7.687646439128204 1 0 0
372 124 1 0.5897 0.1064036963169408 16.667230911659846 6.732077227312242 0 0 0
325 109 2 -1.1794 -3.5527066249872425 12.755197048455802 5.195428539057072 1 0 0
462 154 1 0.5897 -4.886699521207085 16.93515309794311 6.588676754394765 1 0 0
340 114 2 -1.1794 3.5884379685889733 16.28180857409354 5.373548433233706 0 0 0
175 59 2 -1.1794 -0.7794392832640122 14.03242628656404 5.186497887806585 0 0 0
341 114 1 0.5897 3.0865070185773718 15.483248171585714 5.210275921283045 0 0 0
233 78 1 0.5897 2.5655955789760565 14.318712946510416 7.636555790011289 0 0 0
371 124 1 0.5897 0.2536749403448928 16.944999701474117 8.2129249989542 0 0 0
177 59 1 0.5897 0.1470520275785061 14.24739122601617 5.0786141473649105 0 0 0
178 60 2 -1.1794 2.0001563604270505 14.038182569991987 4.947944803707355 0 0 0
422 141 1 0.5897 -2.1114910154538853 16.95403953828885 5.550997061394207 1 0 0
265 89 2 -1.1794 -4.16718537089093 12.269032264772429 9.613619746471779 1 0 0
266 89 1 0.5897 -3.5374299753156784 11.55130057550083 9.546438241675041 1 0 0
425 142 1 0.5897 -4.015118239224482 15.940666250338467 4.8680959940652615 1 0 0
1003 335 2 -1.1794 -5.519327462508356 16.11893226491264 9.90778746973051 1 0 0
728 243 1 0.5897 -3.16392084239794 11.84150430661437 12.429345651345228 0 0 0
846 282 1 0.5897 0.6263524742098214 16.79815713255261 14.153860512845561 0 0 0
718 240 2 -1.1794 -1.2734367935052058 12.25991822034414 11.944119877299025 0 0 0
912 304 1 0.5897 1.3267411741610085 15.236650623652379 11.671080286914533 0 0 0
720 240 1 0.5897 -1.2122470986695077 12.877377110924641 12.67293641606577 0 0 0
755 252 1 0.5897 -0.21290278228046366 14.424956593315118 10.083387552103144 0 0 0
871 291 2 -1.1794 -1.8166222219824375 16.29386094110142 12.341310814598874 0 0 0
917 306 1 0.5897 -2.244085164964398 16.847490663510847 13.976924263769355 0 0 0
784 262 2 -1.1794 -6.604066417422297 13.91235742504351 12.026782536521237 1 0 0
729 243 1 0.5897 -3.888713794892813 12.548311339964924 13.554827701383594 0 0 0
911 304 1 0.5897 -0.059816383102195836 15.839697800960048 11.746253680926095 0 0 0
910 304 2 -1.1794 0.7070856600438491 15.773791386199647 11.177316328114523 0 0 0
1005 335 1 0.5897 -4.8787338687245905 15.541635740305457 10.323309370601129 1 0 0
727 243 2 -1.1794 -3.952880308103828 11.793919443638984 12.969195386931476 0 0 0
719 240 1 0.5897 -1.3194534040460062 12.813068894945733 11.164240966192654 0 0 0
786 262 1 0.5897 -6.72480534005014 13.599453384847266 12.923308601361992 1 0 0
817 273 2 -1.1794 -3.844543814903359 14.564047721985462 11.243545852192334 1 0 0
818 273 1 0.5897 -4.578258166919875 14.406580880694083 11.837736444310092 1 0 0
819 273 1 0.5897 -3.8442721801968105 13.807652976000398 10.656985918601452 1 0 0
873 291 1 0.5897 -2.4937282574898507 15.639367678716273 12.169718618112208 0 0 0
831 277 1 0.5897 -7.480991359430321 12.204918142316577 14.256241581539653 1 0 0
925 309 2 -1.1794 -5.547503278950433 15.998655370274015 14.12532144076587 1 0 0
926 309 1 0.5897 -5.02335900495873 15.22349725188693 14.327011844954932 1 0 0
682 228 2 -1.1794 -1.0355458839530085 13.791431584147775 14.308393611673523 0 0 0
754 252 2 -1.1794 -0.8948396870376212 13.82070853426371 9.789945626289041 0 0 0
688 230 2 -1.1794 2.15272818491155 12.18651716238117 9.949548546850961 0 0 0
774 258 1 0.5897 -5.922472944565257 12.185274789294517 9.836395518982826 1 0 0
683 228 1 0.5897 -0.9186667838613696 13.176084640794759 15.03227586753363 0 0 0
738 246 1 0.5897 -0.41460116555463244 14.326451317267523 17.359383123782095 0 0 0
717 239 1 0.5897 -2.9723591128493636 12.34515009391749 17.162418557086355 0 0 0
783 261 1 0.5897 -8.347379542936766 14.316586444058855 16.96502026979033 1 0 0
185 62 1 0.5897 -1.5217126212423553 13.039465727238616 19.044235536398986 0 0 -1
681 227 1 0.5897 -3.8279077964814627 13.469768242978194 15.756647002567515 0 0 0
830 277 1 0.5897 -7.0404267754953915 13.177592442893543 15.329372750506097 1 0 0
930 310 1 0.5897 -7.223085937596504 15.948176081156529 14.488606631625984 1 0 0
715 239 2 -1.1794 -3.8948185944530618 12.575658545299317 17.272601450461863 0 0 0
716 239 1 0.5897 -3.91822709639304 13.093771649277096 18.077068170802633 0 0 0
874 292 2 -1.1794 -3.1126587030023716 16.238494080569872 17.20301681965004 0 0 0
907 303 2 -1.1794 -5.833972658266449 15.846610548955606 18.058759277456566 0 0 0
806 269 1 0.5897 -5.775226930593396 11.468120663658377 15.220662545608228 1 0 0
876 292 1 0.5897 -2.5514362001413646 15.463379498750474 17.22527018524906 0 0 0
736 246 2 -1.1794 -1.2101818041055772 14.450827035103485 17.876830274151423 0 0 0
909 303 1 0.5897 -5.087764202737021 15.987156242321316 17.475994631503227 0 0 0
781 261 2 -1.1794 -7.460931714701391 13.959625675247064 16.910233991443278 1 0 0
782 261 1 0.5897 -7.324213827735173 13.526150194272477 17.752666119741747 1 0 0
730 244 2 -1.1794 -1.2844633971767507 11.759273438468473 16.05564177887623 0 0 0
908 303 1 0.5897 -6.416038262355318 15.26659149722315 17.5678280798965 0 0 0
875 292 1 0.5897 -2.9117514555366197 16.656417673779462 16.365619700528406 0 0 0
737 246 1 0.5897 -0.988747355921558 15.148737001808012 18.49334567974472 0 0 0
251 84 1 0.5897 -4.943543413822475 14.686126278056635 19.026780768010802 0 0 -1
680 227 1 0.5897 -2.760183457049167 13.947000863937143 14.795358533120003 0 0 0
927 309 1 0.5897 -5.362188061222433 16.60653404261147 14.841084546832949 1 0 0
928 310 2 -1.1794 -8.109980778368726 16.25280409298946 14.680466918312396 1 0 0
829 277 2 -1.1794 -6.739553666840593 12.744641734910743 14.530522258854276 1 0 0