LAMMPS data file via write_data, version 30 Jul 2021, timestep = 28000000

864 atoms
2 atom types
576 bonds
1 bond types
288 angles
1 angle types

0.6930102193111356 17.51456218066751 xlo xhi
1.9078057691894905 21.721372030795067 ylo yhi
0.8454708488730045 21.367724951114788 zlo zhi

Masses

1 1.00794
2 15.9994

Pair Coeffs # lj/cut/tip4p/long/omp

1 0 0
2 0.21084 3.1668

Bond Coeffs # harmonic/omp

1 450 0.9572

Angle Coeffs # harmonic/omp

1 55 104.52

Atoms # full

557 1 1 0.5897 3.445582225644302 5.374857827064405 4.972605406482945 2 -1 4
147 1 1 0.5897 3.3227019130291366 3.095826141475091 3.672420394500288 1 -1 -7
391 1 2 -1.1794 2.752750673275988 4.59469729401425 1.2744547189575106 4 6 1
558 1 1 0.5897 2.149158862240718 4.5958049586795315 4.905721606129113 2 -1 4
393 1 1 0.5897 2.2055094066132375 5.205365286764941 1.7683342289636848 4 6 1
145 1 2 -1.1794 3.0924922632728062 2.271646653360787 3.243428145877075 1 -1 -7
556 1 2 -1.1794 3.0045942689063905 4.679510027904158 4.484383668766299 2 -1 4
77 1 1 0.5897 4.448046985397519 4.48609518649592 2.014400542469401 -9 -8 2
696 1 1 0.5897 1.155155868224456 2.8032476157194934 5.273939601148492 4 -6 4
64 1 2 -1.1794 1.0728559323083509 6.696036252622207 2.182078897666103 4 -3 -5
146 1 1 0.5897 3.528184133856676 2.314303340826422 2.392154694868398 1 -1 -7
105 1 1 0.5897 3.538431754428691 4.493953238981657 8.318712731965636 9 3 7
444 1 1 0.5897 1.2416142464752298 5.0276007083589125 8.828648508354902 2 1 -5
415 1 2 -1.1794 2.1605424461099636 2.215400760106558 6.762970163083267 -6 4 1
443 1 1 0.5897 0.7910323523463292 4.994067931184956 7.383659501639871 2 1 -5
417 1 1 0.5897 3.0838174949629464 2.4417406466221845 6.650527203849394 -6 4 1
442 1 2 -1.1794 1.4727830844402772 4.668963458388527 7.971752555204572 2 1 -5
430 1 2 -1.1794 1.005083901321528 5.017399902386558 10.701507203307758 -10 3 0
416 1 1 0.5897 1.7917735003595123 2.949091048759372 7.254935978509717 -6 4 1
103 1 2 -1.1794 4.4132537453957 4.679645338923651 8.660063402165349 9 3 7
104 1 1 0.5897 4.546180138283384 4.026880435133687 9.347476468501632 9 3 7
480 1 1 0.5897 3.697892981481927 6.623241474080797 8.73319381159527 1 2 0
271 1 2 -1.1794 4.416238153128825 3.376342480859511 10.98157282950788 0 -1 1
273 1 1 0.5897 3.703121774635631 4.005622335524705 11.091004941765414 0 -1 1
350 1 1 0.5897 4.045527830360095 5.502348739387766 14.471429235055659 -14 -1 -5
336 1 1 0.5897 2.397417411822061 6.1487615272817 11.281149840249471 9 -3 4
776 1 1 0.5897 1.4910052957300128 2.7778589268895515 13.682987520717942 5 -1 1
775 1 2 -1.1794 1.9187111182741519 3.1468084760780073 14.455803794469285 5 -1 1
351 1 1 0.5897 2.713261549588083 4.799349569641679 14.319936913509975 -14 -1 -5
349 1 2 -1.1794 3.104576735775887 5.6680316822319465 14.412595769515901 -14 -1 -5
777 1 1 0.5897 2.2340855647298046 2.385057694121926 14.942199467764965 5 -1 1
301 1 2 -1.1794 0.7795640491141405 2.586347519324216 12.082577520139269 -4 8 3
302 1 1 0.5897 1.3810682279203323 1.9803266034955211 11.649851662015417 -4 8 3
272 1 1 0.5897 4.606804352073718 3.072830548402174 11.869200939640143 0 -1 1
335 1 1 0.5897 3.2245550516694297 6.072919858685657 12.546922216810339 9 -3 4
334 1 2 -1.1794 3.2563535458077775 6.373815591327931 11.638756619052986 9 -3 4
432 1 1 0.5897 0.8885638595940495 4.295115985438464 11.318810202397113 -10 3 0
12 1 1 0.5897 0.8465461584554308 2.3417249255097667 20.326282793215128 -2 0 0
403 1 2 -1.1794 2.488169488125802 3.963366977369411 17.49537665099728 1 -6 -1
286 1 2 -1.1794 4.465495091473578 2.6052656565932497 18.91440356278568 5 4 -3
405 1 1 0.5897 2.811377108578016 4.818597549531185 17.77899034208683 1 -6 -1
621 1 1 0.5897 3.421305692603928 5.832048336606734 20.460410679734466 4 -2 3
619 1 2 -1.1794 3.9286846048159876 6.479749909335169 19.97115893489375 4 -2 3
611 1 1 0.5897 4.123312755793067 3.600041683530301 16.242592033725337 -3 2 -3
404 1 1 0.5897 3.005027176767323 3.3330002498667937 17.99718483615417 1 -6 -1
438 1 1 0.5897 0.9622769761482276 3.525531824456586 17.073774180251384 -2 7 2
620 1 1 0.5897 3.367341310421742 6.716423942911762 19.23279228841657 4 -2 3
288 1 1 0.5897 4.8836684541932955 1.9985409187726602 18.303393666071464 5 4 -3
499 1 2 -1.1794 0.7113921147037677 6.616812826792339 19.370687478619487 0 4 -4
544 1 2 -1.1794 2.793806722639619 6.797805222724344 17.41358254231183 -2 2 4
545 1 1 0.5897 2.150033193750523 6.729914752496217 16.708400737514005 -2 2 4
546 1 1 0.5897 3.6408928258693765 6.773559649181409 16.96839695618243 -2 2 4
392 1 1 0.5897 2.131123773942634 4.066772625856521 21.295525003086762 4 6 0
176 1 1 0.5897 4.793294746141451 11.134978996996042 3.7335378366861374 7 1 2
631 1 2 -1.1794 1.979680247427929 9.863726549223124 1.3076367590063562 -2 0 4
828 1 1 0.5897 2.884394614967524 10.366216579773821 4.059279211351146 4 4 0
161 1 1 0.5897 3.5600754743145075 8.907983568904976 1.4363963837614606 -3 8 3
325 1 2 -1.1794 4.478292644189592 7.027439362216157 5.52469827112829 3 2 -3
827 1 1 0.5897 1.8857099929193168 11.432156147950675 3.6611339208838958 4 4 0
826 1 2 -1.1794 1.976743995146037 10.640305360477326 4.191247373836964 4 4 0
65 1 1 0.5897 1.356908109164857 7.269251216610932 2.8941618467912766 4 -3 -5
330 1 1 0.5897 4.794535426154242 9.884524071824993 5.810371190872858 3 2 2
160 1 2 -1.1794 4.255413302837274 8.255636660921274 1.5216129747403468 -3 8 3
632 1 1 0.5897 2.5870213681072656 10.602353969654473 1.2640370344336627 -2 0 4
175 1 2 -1.1794 4.619382064775998 10.22800663730103 3.985450303558882 7 1 2
326 1 1 0.5897 3.7650555215233226 7.479630966502048 5.073989255296647 3 2 -3
374 1 1 0.5897 1.8735846107119403 8.941478731507768 4.830585993193925 0 7 -3
373 1 2 -1.1794 1.831741839400728 8.078327962338703 5.242316624617464 0 7 -3
479 1 1 0.5897 3.8082486959603874 8.132815601609856 8.766041318755562 1 2 0
71 1 1 0.5897 0.9879348251476363 7.956945313854221 9.068547404097025 5 3 -6
75 1 1 0.5897 1.880458455568315 11.55803642631836 7.445281542214657 1 5 6
666 1 1 0.5897 4.135107381200046 10.610892728903385 9.716240084495173 1 1 -3
72 1 1 0.5897 1.9386584310956791 7.48690957497028 7.9881310579167915 5 3 -6
70 1 2 -1.1794 1.0096955642236902 7.521106912407409 8.216549092669183 5 3 -6
74 1 1 0.5897 2.151098965970926 10.969747597018692 6.076778456484755 1 5 6
664 1 2 -1.1794 4.133059732784987 9.663063245038881 9.850106630926135 1 1 -3
329 1 1 0.5897 4.310008756485423 9.86353996153758 7.244547574955426 3 2 2
327 1 1 0.5897 4.263955272052993 7.107757285382182 6.454169073082096 3 2 -3
478 1 2 -1.1794 3.6110359453070604 7.400769014965013 8.181643134869784 1 2 0
73 1 2 -1.1794 1.9742553220545243 10.724026734645582 6.98488502676023 1 5 6
241 1 2 -1.1794 0.9525858700876992 8.182732555281742 10.789179106762612 1 -1 5
375 1 1 0.5897 1.4327361544876323 8.239399051182307 6.097401444295194 0 7 -3
69 1 1 0.5897 3.2735913111244304 9.938385522475016 11.49386598374459 13 -6 -6
68 1 1 0.5897 3.163091509869369 9.339061288066706 12.879755320407074 13 -6 -6
247 1 2 -1.1794 1.6994354276660952 7.903865009914168 15.014422880330812 -1 -1 2
249 1 1 0.5897 2.4639299547880658 8.365555756601013 15.359010036901399 -1 -1 2
67 1 2 -1.1794 2.7179429636928267 9.930974714504744 12.27329582650834 13 -6 -6
841 1 2 -1.1794 4.689770309072851 8.369247031118107 13.55257990853691 3 8 3
248 1 1 0.5897 2.0584326547011917 7.114747036635291 14.608571488116441 -1 -1 2
199 1 2 -1.1794 4.015078929265043 9.670564344621283 15.773969616021217 0 -2 0
843 1 1 0.5897 4.55815072244157 8.822863815701862 14.385180041099904 3 8 3
295 1 2 -1.1794 1.8592855181057033 11.314291105283985 15.851727507756145 6 2 2
296 1 1 0.5897 1.5489335231245798 11.18668878310085 14.955214307392852 6 2 2
117 1 1 0.5897 1.4617119404391334 10.51048424497219 13.159092485402182 -3 -2 4
200 1 1 0.5897 3.545188043090678 10.503773810245006 15.809561323520017 0 -2 0
242 1 1 0.5897 1.63733556156632 8.375635343500752 11.429674659351383 1 -1 5
297 1 1 0.5897 1.3599990186218278 10.683551964877015 16.370603055371014 6 2 2
633 1 1 0.5897 1.9021898201520568 9.56295999671108 20.924442384528874 -2 0 3
138 1 1 0.5897 3.035843202039711 9.223574251791433 19.086874597756236 10 -7 -4
514 1 2 -1.1794 4.666714261088984 9.387831217248728 18.52423325896811 -4 0 -4
201 1 1 0.5897 4.1857631657856995 9.451965981580909 16.690148051887903 0 -2 0
136 1 2 -1.1794 2.1186271870146287 9.164755900152446 19.354384776346947 10 -7 -4
137 1 1 0.5897 1.6247802853371187 9.251362107268712 18.53895821874918 10 -7 -4
500 1 1 0.5897 1.2392938666665674 7.394807119826138 19.55055078008828 0 4 -4
162 1 1 0.5897 4.1772459196697325 7.71726970549876 21.25624206843421 -3 8 2
394 1 2 -1.1794 4.223090195014637 15.054890587486767 1.4857697150221334 2 2 4
730 1 2 -1.1794 3.7654435542334954 12.072048325536834 1.209280158025328 2 -3 -2
724 1 2 -1.1794 1.6665690561247635 12.943541214241195 2.7798177180640113 5 -4 3
496 1 2 -1.1794 1.1351532114248495 15.762436877703735 2.683861343139305 4 5 1
725 1 1 0.5897 1.683731343329054 13.87021032642199 3.019284665543896 5 -4 3
310 1 2 -1.1794 4.6435537368685615 13.292117285958117 3.7208878082528747 -8 7 2
731 1 1 0.5897 3.255482535161831 12.5730876531069 1.8458414214102075 2 -3 -2
256 1 2 -1.1794 3.2428283255018266 14.457647037795741 5.7455399728445675 -4 5 0
497 1 1 0.5897 1.4119761329528213 16.646978102103038 2.4445327583885197 4 5 1
312 1 1 0.5897 4.161528206496091 13.727804439942709 3.0179318843196654 -8 7 2
593 1 1 0.5897 1.4968197356994604 13.829621767352032 5.621684176967539 1 -2 -5
726 1 1 0.5897 1.23471436509694 12.924336139497285 1.925738833603481 5 -4 3
257 1 1 0.5897 3.675803731328754 14.067131470562277 4.986307241004413 -4 5 0
258 1 1 0.5897 3.1213122631272343 15.376495998926455 5.506215136324604 -4 5 0
396 1 1 0.5897 3.480485231432451 15.2488273920267 0.913730984033199 2 2 3
732 1 1 0.5897 4.568994946102621 11.839894356122555 1.6748304543511332 2 -3 -2
395 1 1 0.5897 4.869195755496465 14.645813921539853 0.9099340443985824 2 2 4
493 1 2 -1.1794 4.426658595191121 14.971764440556237 8.152325407008053 -2 -3 3
495 1 1 0.5897 3.9743242604550995 14.872330875090583 7.314576307859153 -2 -3 3
131 1 1 0.5897 1.9596180368889977 14.841165342433339 10.661961289065642 -5 4 1
292 1 2 -1.1794 4.01526838965271 12.48399806668285 9.649357917602364 -4 0 1
193 1 2 -1.1794 2.2996434641770467 16.157517491733092 9.102403642187703 9 -5 0
494 1 1 0.5897 4.262323223785009 14.148886361220983 8.61295619749762 -2 -3 3
293 1 1 0.5897 4.7633995217268215 12.875961567992796 10.099876705937177 -4 0 1
195 1 1 0.5897 1.8252237801571818 16.49938578078188 8.344527257024922 9 -5 0
294 1 1 0.5897 3.24967014439291 12.85042439292294 10.091967942407504 -4 0 1
194 1 1 0.5897 3.0685804814728668 15.726162155534125 8.729605205200723 9 -5 0
130 1 2 -1.1794 2.033301278691929 13.978317050207465 11.069874084978274 -5 4 1
119 1 1 0.5897 1.912930729655279 14.379661175478162 14.898431590537855 4 -1 -2
230 1 1 0.5897 3.391357632496663 13.073305912653606 12.047226685859346 0 8 4
118 1 2 -1.1794 2.675697165022963 13.933714239335076 15.266698259885743 4 -1 -2
120 1 1 0.5897 2.354582713349606 13.062972899546768 15.501210972400223 4 -1 -2
229 1 2 -1.1794 3.9316601681404255 12.996794031275641 12.83369081207514 0 8 4
741 1 1 0.5897 3.0848344418702784 16.48697918746239 12.997800173275904 -1 0 7
231 1 1 0.5897 3.310125892400278 13.060015972494798 13.558949941375255 0 8 4
793 1 2 -1.1794 4.70150982256741 15.87313487505635 14.281615967253423 -2 1 5
132 1 1 0.5897 1.1326197331409138 13.738030858939219 11.287497481518221 -5 4 1
795 1 1 0.5897 4.294982507952577 15.115987025814677 14.703264499819403 -2 1 5
648 1 1 0.5897 0.8580504459087802 16.341423160296408 12.010938408858042 -3 -4 -3
261 1 1 0.5897 4.873114354934349 14.899969237792842 12.127642481830442 4 1 14
110 1 1 0.5897 3.4877119341817107 12.39109444550673 19.854793858038185 0 -3 -7
80 1 1 0.5897 1.5920882107725665 16.457992744811303 20.724493935251594 -3 4 -9
81 1 1 0.5897 1.6053453092007408 15.638842588219944 19.451338837931544 -3 4 -9
79 1 2 -1.1794 2.0152763654109833 15.703888266466116 20.313925639923717 -3 4 -9
180 1 1 0.5897 3.1842341410226966 14.516390488091973 16.96657815665006 -10 -2 2
174 1 1 0.5897 1.0902736075285393 14.32755907668466 20.76396372756814 0 1 -3
109 1 2 -1.1794 3.3646170377090177 12.405472681481305 18.90561370818518 0 -3 -7
111 1 1 0.5897 3.2790449041845835 13.333882843973422 18.688740184243102 0 -3 -7
178 1 2 -1.1794 3.404290506947179 14.899963984729103 17.815569443072206 -10 -2 2
179 1 1 0.5897 4.357128053708359 14.827595455948876 17.87187097094916 -10 -2 2
278 1 1 0.5897 1.6687808385737772 12.156807995941811 18.526510883498304 -3 0 -2
675 1 1 0.5897 4.513348822051661 12.119668952194159 17.48837467008063 -4 1 -6
277 1 2 -1.1794 0.7183695480156351 12.046967758187517 18.49548885906418 -3 0 -2
85 1 2 -1.1794 4.442322286233919 18.175694696771405 1.2985665222205969 1 3 2
370 1 2 -1.1794 2.854280716626771 17.076519852833478 4.966441581965573 -5 7 -1
371 1 1 0.5897 3.014755632930006 17.77068513794434 5.605746243959249 -5 7 -1
527 1 1 0.5897 1.4707273688411426 18.91719503452338 2.0958314821713397 -5 -4 1
550 1 2 -1.1794 0.847892776068035 20.631331717296867 2.8117982570833524 2 14 -3
492 1 1 0.5897 0.9209274536718298 18.617777287684742 5.520303909024322 4 6 5
526 1 2 -1.1794 1.8085825903195556 18.253710926156344 1.4942137170439072 -5 -4 1
372 1 1 0.5897 2.074340269512777 17.363405177207106 4.491350737229489 -5 7 -1
860 1 1 0.5897 4.101301528775322 20.490119351161578 3.561469977321726 -7 0 4
859 1 2 -1.1794 4.44325313460501 19.828849974754498 4.163228908456782 -7 0 4
528 1 1 0.5897 2.7597360235311283 18.352398919615602 1.5376613130104522 -5 -4 1
552 1 1 0.5897 1.6466708787380604 21.086589184420706 3.078421228697321 2 14 -3
785 1 1 0.5897 4.383190571124162 16.811697511995273 4.018303915989858 2 10 4
551 1 1 0.5897 0.7514366269989979 20.84021158078961 1.8826129225408101 2 14 -3
339 1 1 0.5897 1.6320073098940155 19.072056170843762 7.700405923879693 0 2 0
757 1 2 -1.1794 2.02302110250854 21.151297907736776 9.919391530948726 6 -2 4
338 1 1 0.5897 2.1403426076102328 20.0925345476716 6.704263597488404 0 2 0
337 1 2 -1.1794 2.2081449548801215 19.167756132841152 6.941977507057859 0 2 0
97 1 2 -1.1794 0.9648820339366753 18.741277147474804 9.282059543093128 2 -6 8
759 1 1 0.5897 2.828284337351008 21.485142586585606 9.523894758766462 6 -2 4
99 1 1 0.5897 1.0477394772823632 17.8454089018836 9.608960260287313 2 -6 8
102 1 1 0.5897 4.443377940796619 19.760727976842624 10.550817432745298 8 -6 -5
758 1 1 0.5897 2.0117605646872323 20.22142509388281 9.692427765189638 6 -2 4
412 1 2 -1.1794 4.843997625209939 20.98112199563618 8.918467013136677 8 -3 6
413 1 1 0.5897 4.776592173925073 21.10540143454544 7.971725034381461 8 -3 6
476 1 1 0.5897 2.150700249414155 18.683145342047567 12.980732900497076 0 -2 -2
791 1 1 0.5897 3.8771158058571 18.61448243160014 15.415111277450347 -3 1 -1
688 1 2 -1.1794 0.9885715984865561 17.521540848568645 15.410262734580016 6 -5 5
475 1 2 -1.1794 2.021190197151779 19.608221355406865 13.190004528461063 0 -2 -2
100 1 2 -1.1794 4.054265639876846 19.24206236667872 11.255006163112796 8 -6 -5
112 1 2 -1.1794 4.786130745940517 19.617191906608042 14.087736398997473 -5 -4 3
792 1 1 0.5897 4.085672918762152 17.115210744953806 15.387548060286123 -3 1 -1
477 1 1 0.5897 2.795778361435186 19.85013676096188 13.697740084606831 0 -2 -2
169 1 2 -1.1794 2.9615290901370654 21.030774267408958 16.19119300382465 -5 2 1
790 1 2 -1.1794 3.626850482582186 17.807017628243305 15.864189347938364 -3 1 -1
740 1 1 0.5897 3.0040452543225133 17.317611175361606 11.734615818138616 -1 0 7
114 1 1 0.5897 4.753685611964216 19.265310207403576 13.19811213833952 -5 -4 3
689 1 1 0.5897 1.8961714209928855 17.796717868325878 15.540097976463954 6 -5 5
739 1 2 -1.1794 2.4768432800794438 17.00438222064171 12.469635251920732 -1 0 7
101 1 1 0.5897 3.3443813866182652 19.78885928260022 11.591729954249862 8 -6 -5
445 1 2 -1.1794 1.9519121778638637 19.799494237344053 18.375931537182865 3 -3 -4
447 1 1 0.5897 2.766263341881194 19.344807746816947 18.591389286028715 4 -3 -4
10 1 2 -1.1794 1.101601944421982 21.285389519946918 20.633724802796728 -2 -1 0
171 1 1 0.5897 2.367979008666582 20.610662840271008 16.813734719607847 -5 2 1
765 1 1 0.5897 3.8924074015550127 17.761742334259907 17.736604574227485 -2 -3 -7
11 1 1 0.5897 2.052656738818665 21.33441956174577 20.730682318588485 -2 -1 0
446 1 1 0.5897 1.8492411718626602 20.450064452700918 19.07057933317288 3 -3 -4
763 1 2 -1.1794 4.10593184043886 17.75736729282261 18.66971901135925 -2 -3 -7
764 1 1 0.5897 3.53475072754392 17.08628053846825 19.043485448864203 -2 -3 -7
744 1 1 0.5897 4.177862088943966 20.054705012274976 21.29730743301686 -4 -1 4
742 1 2 -1.1794 3.7645682602367545 20.893164913878085 21.091204470960406 -4 -1 4
743 1 1 0.5897 4.323934587626923 21.27684725766261 20.415774906496736 -4 -1 4
170 1 1 0.5897 3.8367702146262666 20.783674789507305 16.489868429074676 -5 2 1
8 1 1 0.5897 0.8197153522906291 18.79136983454414 19.212055571387303 2 -3 -1
209 1 1 0.5897 5.454804109717544 2.7747961624248036 5.858706470181925 -6 -3 2
45 1 1 0.5897 8.563891397422807 5.9996638447124475 5.859567724480886 7 10 0
549 1 1 0.5897 6.091378337290158 2.421675567564513 1.9942737673679762 4 3 3
543 1 1 0.5897 6.044320322315463 4.511521672130789 4.5490055385409045 5 1 7
270 1 1 0.5897 8.198541187904118 5.281283545187549 3.518054729345888 5 -1 3
268 1 2 -1.1794 8.66464497283409 4.998850190448364 2.731109174088373 5 -1 3
541 1 2 -1.1794 6.467357600294971 3.9593602459053043 5.206631142480173 5 1 7
78 1 1 0.5897 5.857186660296215 5.036152209664321 1.9524118027013595 -9 -8 2
14 1 1 0.5897 6.005395084993141 6.839544454309786 4.685109470995882 -1 -6 -2
354 1 1 0.5897 7.489995152905261 2.4581612167376696 4.633623210666968 9 4 -3
76 1 2 -1.1794 5.346082450996392 4.299905910115255 2.2885993037817545 -9 -8 2
463 1 2 -1.1794 6.6506716909999115 6.75596531506694 1.3082281207614006 3 -1 -1
464 1 1 0.5897 6.964932937769712 6.57933999975432 2.1949916389544946 3 -1 -1
13 1 2 -1.1794 6.8135567154835535 6.793495915457597 4.174160779011538 -1 -6 -2
756 1 1 0.5897 7.28943759932252 5.131272240542948 7.772450146708756 -6 3 -5
754 1 2 -1.1794 6.6726482033353145 5.7587065978458725 7.395338145362274 -6 3 -5
577 1 2 -1.1794 8.018127504875228 3.6705946981247646 8.452466979111227 4 3 -5
755 1 1 0.5897 5.837104775530066 5.556576589967847 7.81643278166103 -6 3 -5
579 1 1 0.5897 7.989564543455268 3.2194988065408543 9.296268478591012 4 3 -5
203 1 1 0.5897 5.6630485182625865 5.7284969910691 9.983767349428703 -5 1 -2
202 1 2 -1.1794 5.794133577035343 6.214946699638587 10.797703792229024 -5 1 -2
473 1 1 0.5897 8.337809707314472 2.071418745886993 7.496731219314198 -1 3 1
578 1 1 0.5897 8.93391197512265 3.9296499043213955 8.349692479876754 4 3 -5
684 1 1 0.5897 6.427276039340661 2.5143846184905394 11.041625258949518 5 0 -7
220 1 2 -1.1794 8.835507609965813 5.433376281013468 11.020351618675521 6 -2 5
222 1 1 0.5897 8.106422276675037 4.820495925005015 10.924882171117536 6 -2 5
682 1 2 -1.1794 7.342010756874811 2.795589050186262 11.063907566070851 5 0 -7
204 1 1 0.5897 4.910249774448976 6.442424317842579 11.086359711589608 -5 1 -2
208 1 2 -1.1794 5.058317540278881 1.954397025700633 6.152066121679216 -6 -3 2
542 1 1 0.5897 6.392090460196789 4.456073843280169 6.021446745758616 5 1 7
224 1 1 0.5897 6.048944343233463 5.763940607442956 12.606154693061768 2 1 -7
610 1 2 -1.1794 5.031017609539553 3.854269933423022 16.075960889805316 -3 2 -3
5 1 1 0.5897 8.292215952942797 4.989257299348406 15.03181651580366 -2 -3 -2
683 1 1 0.5897 7.570066960440292 2.796992925257024 11.993587617721499 5 0 -7
185 1 1 0.5897 8.58890832747668 3.431421313558256 13.80301966714531 -3 9 4
4 1 2 -1.1794 8.362012047110504 5.249808198871111 14.113351387226112 -2 -3 -2
223 1 2 -1.1794 5.839825108070907 5.7879561781692255 13.539989319870035 2 1 -7
225 1 1 0.5897 6.660101963676825 5.556287387771355 13.975653870313534 2 1 -7
221 1 1 0.5897 8.444428040195769 6.211575605175184 11.417548929283335 6 -2 5
851 1 1 0.5897 5.2178031711057455 2.9319798666768357 14.47712717381142 -10 0 -2
184 1 2 -1.1794 8.503515496093094 2.5241017397258436 13.51007483942256 -3 9 4
186 1 1 0.5897 8.163016587505115 2.056674039103893 14.272884205829204 -3 9 4
850 1 2 -1.1794 5.1042710336102255 2.6260227532538996 13.57723668268303 -10 0 -2
6 1 1 0.5897 9.092561209193496 5.868069848783909 14.094102978796393 -2 -3 -2
612 1 1 0.5897 5.046123365060773 4.800110014539845 16.222552310210382 -3 2 -3
439 1 2 -1.1794 6.045440750998237 4.846874570236951 19.007745191709297 0 -1 1
322 1 2 -1.1794 8.664039628972475 4.210721939135113 19.835952388410995 8 -4 -2
427 1 2 -1.1794 8.449250311682635 6.710500023165975 17.247968371165832 -1 -3 -1
428 1 1 0.5897 8.151051589039465 5.80119021187819 17.271403437244807 -1 -3 -1
237 1 1 0.5897 5.598113317729622 6.305003320657337 17.36983054859973 -3 -3 -5
323 1 1 0.5897 8.956868728231603 3.6903611570691863 20.584144738696125 8 -4 -2
656 1 1 0.5897 6.923815303211273 3.952970648562308 16.50603689819225 -4 6 -5
440 1 1 0.5897 5.573977841783486 5.447368995766239 19.585203632317246 0 -1 1
441 1 1 0.5897 6.780068651352532 4.533617505276626 19.53548796554651 0 -1 1
309 1 1 0.5897 8.41991129090387 2.3313136947369832 18.99209813431451 -1 6 -3
287 1 1 0.5897 5.075459329558618 3.340258958435987 18.97802394471887 5 4 -3
655 1 2 -1.1794 7.846087624035152 4.207624786089521 16.535531843446204 -4 6 -5
657 1 1 0.5897 8.322283052988357 3.3789481748814643 16.5888625182304 -3 6 -5
235 1 2 -1.1794 5.276272596187318 6.493447948580294 16.488219805587963 -3 -3 -5
192 1 1 0.5897 7.732745478139274 9.46289176709789 2.1841614618571854 4 4 -8
506 1 1 0.5897 7.042475032892595 11.339158046980135 2.5086220683880756 -3 4 -2
191 1 1 0.5897 7.669187416507238 10.088235372693243 3.561490462613519 4 4 -8
190 1 2 -1.1794 7.204145168496882 9.484748141202859 2.981924412402656 4 4 -8
177 1 1 0.5897 5.202615831382094 9.709016319631495 3.431524513413216 7 1 2
121 1 2 -1.1794 8.58249866399261 11.136740571639766 4.509956267444277 0 2 5
15 1 1 0.5897 6.989901795722001 7.699863959464876 3.9217654356133247 -1 -6 -2
465 1 1 0.5897 5.950842043434233 7.398516345639947 1.4251537111360562 3 -1 -1
122 1 1 0.5897 8.13254993392675 11.307734727119655 5.337369774199728 0 2 5
665 1 1 0.5897 5.008429852832977 9.465875009973743 10.18350608102097 1 1 -3
33 1 1 0.5897 7.162513287959373 8.228619025145733 8.908265559802272 3 5 6
738 1 1 0.5897 7.379109957095813 10.53204538165019 9.184229442226105 3 -4 0
31 1 2 -1.1794 6.788983373692267 8.497219124525063 9.747692423925521 3 5 6
855 1 1 0.5897 6.710530383404667 8.95089952493808 6.821707683220615 -4 -1 4
853 1 2 -1.1794 7.521272257146765 8.455350317904387 6.937811928803436 -4 -1 4
328 1 2 -1.1794 5.102809477949204 9.94620852786243 6.714509327108432 3 2 2
32 1 1 0.5897 6.531355640866521 7.677248468187881 10.16911655448399 3 5 6
854 1 1 0.5897 7.2516236262891285 7.538332955415578 6.885600139343126 -4 -1 4
737 1 1 0.5897 7.628167859399346 11.600164585171687 8.140595655733927 3 -4 0
736 1 2 -1.1794 7.910914253551037 11.308030676768073 9.007208578808429 3 -4 0
366 1 1 0.5897 6.070322329306263 11.435195724748835 6.636989147704913 5 3 1
166 1 2 -1.1794 8.574423359976798 11.06138039932376 13.344963686550903 -4 0 4
459 1 1 0.5897 7.74466953076233 7.687587195558185 13.355735152397674 -1 -4 -3
458 1 1 0.5897 9.013834939543122 7.981600026391564 12.584465683062595 -1 -4 -3
729 1 1 0.5897 6.7125365118271745 9.198074896549326 11.620166291623608 -2 1 4
457 1 2 -1.1794 8.088870125569224 7.765510635986652 12.465926357576077 -1 -4 -3
842 1 1 0.5897 5.100195640571676 7.538825421792258 13.793964976121682 3 8 3
168 1 1 0.5897 8.275520462095443 11.139289283659629 14.250992929386216 -4 0 4
728 1 1 0.5897 5.6559181686212945 9.69718879371616 12.582733790891757 -2 1 4
727 1 2 -1.1794 6.300885945541134 9.999602603541101 11.943307248907727 -2 1 4
167 1 1 0.5897 7.820026529160525 10.70883000186775 12.872836779188468 -4 0 4
333 1 1 0.5897 7.176876221668989 9.015579056350067 15.342660982719861 1 3 3
331 1 2 -1.1794 7.169410987003155 8.07307966945874 15.175492181718365 1 3 3
332 1 1 0.5897 7.782007099449079 7.710920308111447 15.815709911893975 1 3 3
157 1 2 -1.1794 7.361167102778168 10.73043456913516 15.866422197052604 -1 0 -1
236 1 1 0.5897 5.987250437080575 6.981147213063619 16.072333716513693 -3 -3 -5
662 1 1 0.5897 7.030017822188883 7.477979764565779 20.186341252783407 0 -6 -1
712 1 2 -1.1794 8.393853187836777 9.796531410213918 18.14060944449526 -11 -2 0
661 1 2 -1.1794 7.128803237606492 7.862865353428981 19.3154549703048 0 -6 -1
158 1 1 0.5897 7.83296222832583 10.324468851427369 16.593697634312335 -1 0 -1
713 1 1 0.5897 7.923259227258619 9.093179536369822 18.58798342626877 -11 -2 0
153 1 1 0.5897 8.915778651938984 10.803472193219719 19.743169402180335 3 -3 0
804 1 1 0.5897 7.138766120129655 11.287659261146192 19.373642341012328 6 -1 -8
515 1 1 0.5897 5.323921873410037 8.702418219431557 18.645064405349068 -4 0 -4
516 1 1 0.5897 5.068531502555785 10.173625882028027 18.894915641562996 -4 0 -4
663 1 1 0.5897 7.727062705458688 7.271774712380969 18.858281421656216 0 -6 -1
802 1 2 -1.1794 6.247983714287436 11.460800332764496 19.678336875738893 6 -1 -8
159 1 1 0.5897 6.57563554174806 11.10226221374362 16.267680437296576 -1 0 -1
367 1 2 -1.1794 7.264055524213224 15.08173520785176 1.6867389863481606 5 1 -4
424 1 2 -1.1794 7.843271374138047 16.498855837079255 5.686227255966012 9 -1 1
183 1 1 0.5897 7.906296014177373 13.949723900072089 4.270810047247529 -12 5 -2
368 1 1 0.5897 7.053261539301828 15.757710079927012 1.042592450100355 5 1 -4
507 1 1 0.5897 7.323584091009305 12.77142171293304 2.1065146024156363 -3 4 -2
311 1 1 0.5897 5.461624886810825 13.78412418883871 3.7916976708896435 -8 7 2
182 1 1 0.5897 7.172596629078242 14.951822294216248 5.136592288392659 -11 5 -2
784 1 2 -1.1794 5.217618931317847 16.50275366503198 3.6652595135291226 2 10 4
181 1 2 -1.1794 7.145461809053681 14.040624513209984 4.8445537633359566 -12 5 -2
263 1 1 0.5897 8.621530663148562 15.856283467368554 2.915242945918119 4 1 4
369 1 1 0.5897 7.843484354234812 14.478726395689103 1.220966411807643 5 1 -5
264 1 1 0.5897 8.886535062997968 16.680006027627563 4.157551594392494 4 1 4
505 1 2 -1.1794 6.844719552525804 11.988696249308925 1.833864226756524 -3 4 -2
219 1 1 0.5897 9.085282033151893 12.424375155600584 3.446795272904509 4 -3 -2
786 1 1 0.5897 4.972957747181792 15.869475517802732 2.9903743883078766 2 10 4
819 1 1 0.5897 7.368595630694037 14.937766955282713 8.821263580146853 9 -2 2
245 1 1 0.5897 6.8009251552775085 12.421209791653428 10.09501978200824 -6 -1 -4
818 1 1 0.5897 6.189487637010088 15.064222293126676 7.8800817239594165 9 -1 2
365 1 1 0.5897 6.566232596485006 12.776909921465 6.140993007545834 5 3 1
817 1 2 -1.1794 7.139476500323975 14.94722902770083 7.891887348875752 9 -1 2
244 1 2 -1.1794 6.483629768194755 12.671550055583078 10.9627537982809 -6 -1 -4
364 1 2 -1.1794 6.82276297125082 12.025644082472668 6.675902257050787 5 3 1
425 1 1 0.5897 7.847627178091742 15.99560497298604 6.50050541356755 9 -1 1
780 1 1 0.5897 8.710913783597466 13.931576563536526 6.947744604636376 -3 4 -5
397 1 2 -1.1794 8.417531913177452 15.184398410667884 10.564328506126452 1 4 -6
399 1 1 0.5897 8.932474054429244 14.400022740114444 10.753783148440831 1 4 -6
735 1 1 0.5897 8.766461522292442 11.934492117498717 10.499596424611301 -2 0 -8
108 1 1 0.5897 8.469328972358536 16.69067583693845 9.71872152696312 6 0 2
687 1 1 0.5897 6.174779030122172 12.976732046571641 14.879539134101336 4 -8 -7
685 1 2 -1.1794 6.345328560722722 13.329082978927337 14.005998884561594 4 -8 -7
39 1 1 0.5897 8.26021601287879 13.716940793313393 13.360906067170726 1 1 -3
708 1 1 0.5897 7.32601280511522 15.384754955662617 15.866402147256766 1 -5 -12
794 1 1 0.5897 5.641559324898848 15.699504384650766 14.331293567203634 -2 1 5
707 1 1 0.5897 8.219857602686336 15.282725112043677 14.648707004160388 1 -5 -12
398 1 1 0.5897 8.721782755071887 15.830890054861747 11.201345637081614 1 4 -6
706 1 2 -1.1794 7.665396927035621 15.895738567468486 15.131539027713538 1 -5 -12
246 1 1 0.5897 6.264985331554237 11.841757234401642 11.386949046119543 -6 -1 -4
259 1 2 -1.1794 5.2990379271691275 15.240234869302824 11.340801554279393 4 1 14
686 1 1 0.5897 5.579620641348091 13.074735281462376 13.490911795519834 4 -8 -7
260 1 1 0.5897 5.983375168003786 14.600879305085211 11.142785594140216 4 1 14
734 1 1 0.5897 9.02324427314142 11.98873232472506 11.990638227598142 -2 0 -8
518 1 1 0.5897 5.615107386642398 13.233007596628347 19.70998599033188 0 -1 -7
830 1 1 0.5897 8.30044026722238 13.023418291422974 16.70573177749851 4 0 6
409 1 2 -1.1794 8.45602241265195 13.96633697950457 19.893912425268866 9 -3 -12
831 1 1 0.5897 7.974991425416315 13.671645768997733 18.03462349159625 4 0 6
673 1 2 -1.1794 5.059154670195367 12.35949597070307 16.73943894320309 -4 1 -6
674 1 1 0.5897 5.87960712104937 12.6632870599197 17.127903452611392 -4 1 -6
829 1 2 -1.1794 7.619240839727379 13.52031387819323 17.158918977510773 4 0 6
519 1 1 0.5897 6.661592509707983 14.324559506665702 19.78421556984405 0 -1 -7
517 1 2 -1.1794 5.726123372595695 14.181245911966885 19.64030731804798 0 -1 -7
411 1 1 0.5897 8.858320255130549 13.20852784412947 20.318462432060834 9 -3 -12
471 1 1 0.5897 8.928418065446406 16.762068321176802 19.94181748401838 8 -6 6
601 1 2 -1.1794 5.844740155285639 16.14387457367029 17.46676084925783 -1 4 2
143 1 1 0.5897 6.726922862134119 16.701136218017403 19.256905910145157 -3 0 7
602 1 1 0.5897 5.147479911154956 16.569546898024246 17.965695676019827 -1 4 1
803 1 1 0.5897 6.361582669871598 11.83252271036976 20.553132244682637 6 -1 -8
353 1 1 0.5897 8.2035952960841 21.23206095153035 5.4714742666982366 9 3 -3
56 1 1 0.5897 8.495126522170164 18.805593159934414 4.913314977867333 -8 -1 4
847 1 2 -1.1794 9.019169748902941 18.643709568642482 1.7194026991941005 9 -3 5
861 1 1 0.5897 5.252503412872666 19.52541990446553 3.7517106965049627 -7 0 4