LAMMPS data file via write_data, version 30 Jul 2021, timestep = 48250000

1296 atoms
2 atom types
864 bonds
1 bond types
432 angles
1 angle types

-10.579120929231854 12.559120929231854 xlo xhi
-9.126859692078208 12.116857692078208 ylo yhi
0.16448424840667464 21.69551475159364 zlo zhi
-9.105027293280136 1.8910378644704025 2.8484326810546716 xy xz yz

Masses

1 1.008
2 15.999

Pair Coeffs # lj/cut/tip4p/long/omp

1 0 0
2 0.21084 3.1668

Bond Coeffs # harmonic/omp

1 450 0.9572

Angle Coeffs # harmonic/omp

1 55 104.52

Atoms # full

280 94 2 -1.1794 -9.537635472401147 -4.502848950414531 1.5467561111413184 1 1 0
270 90 1 0.5897 -8.396178216821838 -7.3414891347086755 2.1296315742926772 1 1 0
269 90 1 0.5897 -9.2068599170861 -6.082391154568592 2.3513270834242572 1 1 0
268 90 2 -1.1794 -9.066149429681746 -6.963012921366619 2.698906502649901 1 1 0
314 105 1 0.5897 -8.783708561332606 -6.68777064413106 4.486125653074919 1 1 0
299 100 1 0.5897 -6.506488578827856 -7.881701539605871 4.1444712085143784 1 1 0
163 55 2 -1.1794 -7.130305712078255 -7.92398249761614 0.9314009074546747 1 1 0
164 55 1 0.5897 -6.319251184584248 -8.305005704212478 1.2680841140930863 1 1 0
298 100 2 -1.1794 -5.8949148318444395 -7.145540831118074 4.163982983371971 1 1 0
73 25 2 -1.1794 -8.301872963302745 -3.724168178382257 4.779157341760524 1 0 0
324 108 1 0.5897 -7.0365193609426395 -4.307332145862414 3.580692341099234 1 1 0
74 25 1 0.5897 -8.037917276952706 -3.1383114349713193 5.488608553261116 1 0 0
282 94 1 0.5897 -10.40240262269979 -4.097578632099693 1.6119906720180517 1 1 0
84 28 1 0.5897 -8.063231352159308 -0.4716756821878043 4.09757074126705 1 0 0
75 25 1 0.5897 -9.113709373111318 -3.3440513817322177 4.443334119451491 1 0 0
281 94 1 0.5897 -8.925465286602291 -3.7672177619064495 1.5675093704568508 1 1 0
301 101 2 -1.1794 -7.893727596020142 -2.2480169385721798 1.6358513755162125 1 1 0
53 18 1 0.5897 -12.242612485055854 0.9970276988540441 2.3567439055864567 1 0 0
275 92 1 0.5897 -10.44581628579073 -7.901993743965315 3.38015248784338 1 1 0
97 33 2 -1.1794 -11.775452206492686 0.6974849035353436 5.395090796305975 1 0 0
322 108 2 -1.1794 -6.366241316566016 -4.685452979083617 3.011542280076734 1 1 0
300 100 1 0.5897 -5.0301052202996015 -7.549823741779311 4.0934090366847915 1 1 0
313 105 2 -1.1794 -8.741502056254411 -6.382872676925933 5.392430979663866 1 1 0
256 86 2 -1.1794 -11.985798040439903 -3.2807350948075724 1.8943858888848735 1 1 0
258 86 1 0.5897 -12.420165584985448 -2.7379501641039576 1.236445441818203 1 1 0
241 81 2 -1.1794 -1.028753804845289 -6.382873896927373 5.392430697649304 0 1 0
90 30 1 0.5897 -3.7184386956581124 -0.2615926946941336 2.135053177253444 1 0 0
69 23 1 0.5897 -11.011645413806594 -2.548697361377731 3.259084225932903 1 0 0
272 91 1 0.5897 -9.355864704787296 -1.2249843114675096 1.2698690231870824 1 1 0
83 28 1 0.5897 -9.540002518941089 -0.801724449287951 4.149266909059366 1 0 0
82 28 2 -1.1794 -8.927567442403756 -0.0662434065624673 4.16734538608266 1 0 0
271 91 2 -1.1794 -10.165904031504516 -0.8424436583527921 0.9324644748255272 1 1 0
98 33 1 0.5897 -11.817323333261536 0.39321767833056676 4.488558026348425 1 0 0
54 18 1 0.5897 -11.431186755638073 -0.26159196083105307 2.1350535526148393 1 0 0
67 23 2 -1.1794 -10.57328214686109 -2.3213418030757644 4.079093773145049 1 0 0
68 23 1 0.5897 -11.241622086868315 -2.4503350216724353 4.752061874828352 1 0 0
52 18 2 -1.1794 -12.100733395389122 0.11681178094110045 2.704875842748197 1 0 0
261 87 1 0.5897 -6.650050570388288 -4.9614410987280415 1.224989952191365 1 1 0
323 108 1 0.5897 -6.222786618761046 -5.564835709608394 3.361131166006158 1 1 0
310 104 2 -1.1794 -3.4464286857068354 -8.367794291341093 3.8165411911627354 1 1 0
3 1 1 0.5897 -1.4009637193454623 -3.3440507252299474 4.443335319811767 0 0 0
103 35 2 -1.1794 -2.860535945216448 -2.321339535567316 4.079094442829691 1 0 0
89 30 1 0.5897 -4.529862133564254 0.9970284115772863 2.356743702813017 1 0 0
259 87 2 -1.1794 -6.690960335937932 -5.265529836522411 0.3183535503352742 1 1 0
59 20 1 0.5897 -13.480440589880537 -0.8242857875941958 3.3854770904981417 1 0 0
88 30 2 -1.1794 -4.3879846328118965 0.11681219436332313 2.7048755307439483 1 0 0
302 101 1 0.5897 -7.456335147298371 -2.0193842527738646 2.4560239740640206 1 1 0
107 36 1 0.5897 -9.255987353113168 1.5176122063197948 3.360379989909574 1 0 0
306 102 1 0.5897 -0.683430933299153 -7.34148887527992 2.1296289034272453 1 1 0
304 102 2 -1.1794 -1.3534010025051568 -6.963013115774119 2.6989054789927467 1 1 0
318 106 1 0.5897 -2.68965434845708 -4.097578551826484 1.611993233560747 1 1 0
242 81 1 0.5897 -1.0709609723020623 -6.687772834466103 4.48612572823399 0 1 0
305 102 1 0.5897 -1.494110628366391 -6.082390300758387 2.3513283667288243 1 1 0
316 106 2 -1.1794 -1.8248873881113745 -4.502848868406141 1.5467561469407105 1 1 0
311 104 1 0.5897 -2.7330686003451063 -7.901994996462349 3.3801487558561263 1 1 0
293 98 1 0.5897 -4.986958257756114 -3.744685138675302 2.331851645571221 1 1 0
303 101 1 0.5897 -7.22404118923492 -2.1218689880313155 0.963682469781929 1 1 0
294 98 1 0.5897 -4.707417203511557 -2.737951341061379 1.2364455174750384 1 1 0
243 81 1 0.5897 -0.8773294854300673 -5.440410116667147 5.321800637243433 0 1 0
96 32 1 0.5897 -6.046177732096626 -1.834906066872957 4.477567278308621 1 0 0
95 32 1 0.5897 -5.767692685324341 -0.8242856478177121 3.3854759453635803 1 0 0
105 35 1 0.5897 -3.2988993588145608 -2.548694075972885 3.259084691836362 1 0 0
94 32 2 -1.1794 -6.480978063477839 -1.2917019045477103 3.8202589103930236 1 0 0
104 35 1 0.5897 -3.5288754788427426 -2.4503345213911327 4.75206260939836 1 0 0
26 9 1 0.5897 -4.104576047599283 0.3932171245623959 4.488557904240682 0 0 0
292 98 2 -1.1794 -4.273050046325941 -3.2807348426221967 1.8943873993023872 1 1 0
27 9 1 0.5897 -3.9120307211507717 1.6401215618210259 5.325166885544752 0 0 0
99 33 1 0.5897 -11.624775463227703 1.640121136309281 5.325167882497125 1 0 0
25 9 2 -1.1794 -4.062703813785228 0.6974847959846961 5.39509047344756 0 0 0
44 15 1 0.5897 -9.8756974803287 0.8757071748791425 0.3853666362807393 1 0 0
260 87 1 0.5897 -6.840362443764878 -6.208393506917704 0.3879422211709246 1 1 0
315 105 1 0.5897 -8.590073952631403 -5.440409418205498 5.321802066415182 1 1 0
201 67 1 0.5897 0.3181715693558278 -8.509973230136769 0.22217448419026523 1 1 0
317 106 1 0.5897 -1.2127170897985131 -3.7672177568824425 1.5675088136585806 1 1 0
165 55 1 0.5897 -7.394576218203177 -8.509973871067148 0.222178034707482 1 1 0
309 103 1 0.5897 -2.7170491807469928 -1.4270662177046969 0.22197179109148177 1 1 0
273 91 1 0.5897 -10.42979625469915 -1.4270660958808215 0.22197225866042353 1 1 0
307 103 2 -1.1794 -2.4531562680912433 -0.8424432489276406 0.9324633142600866 1 1 0
199 67 2 -1.1794 0.582440524350389 -7.923982529509116 0.931398490413302 1 1 0
420 140 1 0.5897 -9.080868459998145 -6.433946606236331 9.861758507782852 1 0 0
618 206 1 0.5897 -7.743695889460163 -7.334487090760445 6.616342713052846 1 1 0
413 138 1 0.5897 -7.5656580114150245 -3.6016379690764024 7.737017007915409 1 0 0
419 140 1 0.5897 -8.802402842938083 -5.42485956351908 8.768245343977739 1 0 0
418 140 2 -1.1794 -9.51573811717004 -5.891126315313938 9.20417886552208 1 0 0
414 138 1 0.5897 -6.753558681769173 -4.859718720888504 7.5147345840572415 1 0 0
350 117 1 0.5897 -7.140734747853104 -4.208003098251682 9.872220386613611 0 0 0
412 138 2 -1.1794 -7.423386305921149 -4.481980488652804 8.08466828193615 1 0 0
429 143 1 0.5897 -6.335338033764582 -7.149594051204248 8.642968195455246 1 0 0
427 143 2 -1.1794 -5.896917893927279 -6.922986252844055 9.463154244072962 1 0 0
428 143 1 0.5897 -6.565179256747598 -7.052697173010486 10.136062527595977 1 0 0
544 182 2 -1.1794 0.4031634378144844 -7.877095760549897 7.274599322677314 0 1 0
403 135 2 -1.1794 -5.04982769565104 -2.7810858342666496 5.6977102684970635 1 0 0
330 110 1 0.5897 -3.066606225371947 -0.2498759182802761 6.61420974823037 0 0 0
435 145 1 0.5897 -7.471491001510937 -0.8622411991620389 9.827608899992311 0 0 0
425 142 1 0.5897 -7.284643566681258 -1.2837866297279144 6.945454579799534 1 0 0
400 134 2 -1.1794 -10.34447935740951 -0.792030208467974 7.272336422617265 1 0 0
536 179 1 0.5897 -9.600059326257982 0.03190443498602136 10.130875107457417 1 0 0
402 134 1 0.5897 -10.77935433292512 -0.24987725507837055 6.614209938684438 1 0 0
526 176 2 -1.1794 -12.551651582651083 1.1956322762427813 9.199786791501415 1 0 0
405 135 1 0.5897 -5.009111602601849 -2.4768798008198933 6.6043160244149375 1 0 0
537 179 1 0.5897 -9.370051248574601 -0.06443445829389738 8.637770368399055 1 0 0
426 142 1 0.5897 -8.7618474297613 -1.6128449038117392 6.990729965983298 1 0 0
401 134 1 0.5897 -11.057830301216667 -1.2576724163645459 7.708911084419475 1 0 0
527 176 1 0.5897 -11.838302773101313 1.6610210545597575 8.762938320123705 1 0 0
535 179 2 -1.1794 -8.931824950851055 0.16219928764330227 9.458052767946256 1 0 0
424 142 2 -1.1794 -7.8973738765783645 -2.0190187150321792 6.927247245209342 1 0 0
528 176 1 0.5897 -12.116689020460367 0.653060497649129 9.85751008381162 1 0 0
417 139 1 0.5897 -8.787044830885621 1.0540703595393524 5.603615606576931 1 0 0
337 113 2 -1.1794 -6.25159341531985 0.2382795879667352 7.013072745289373 0 0 0
349 117 2 -1.1794 -7.098528764874192 -3.903265397883761 10.778579638882603 0 0 0
631 211 2 -1.1794 -5.48659848408003 -5.438788803568199 6.310153945326744 1 1 0
415 139 2 -1.1794 -8.522372333657788 1.6405536090092454 6.31228190689435 1 0 0
329 110 1 0.5897 -3.3450847057505486 -1.257670522210094 7.708910768180496 0 0 0
454 152 2 -1.1794 -4.83890437196745 1.195630998597716 9.199785423236678 0 0 0
335 112 1 0.5897 -4.863862151266568 -5.39922878524912 9.530461097261464 0 0 0
433 145 2 -1.1794 -6.660023057226663 -1.2433326842826196 10.163217239587691 0 0 0
464 155 1 0.5897 -1.88731059418126 0.03190247013220571 10.130875475421568 0 0 0
522 174 1 0.5897 -9.78882931694421 2.2224255193282207 7.511289854891377 1 0 0
555 185 1 0.5897 -2.54517970202893 -6.716404204697771 6.344561346930767 0 1 0
416 139 1 0.5897 -7.711280576552812 1.2596042763571624 6.648959090492786 1 0 0
347 116 1 0.5897 -1.0896549609413864 -5.424858837738779 8.76824533255319 0 0 0
348 116 1 0.5897 -1.36811969541432 -6.433946679296355 9.861757983825067 0 0 0
336 112 1 0.5897 -3.3872662729706375 -5.068518661407797 9.477992210602252 0 0 0
359 120 1 0.5897 -4.57992946678001 -3.080323625784737 8.73922181084077 0 0 0
346 116 2 -1.1794 -1.8029898499469077 -5.891126222199544 9.204178807489274 0 0 0
632 211 1 0.5897 -4.676448937687334 -5.82112627570652 6.647524348220551 1 1 0
546 182 1 0.5897 -0.03094687541885044 -7.334488080592671 6.61634299978878 0 1 0
553 185 2 -1.1794 -3.2157259628387225 -6.843150117276727 7.015760249654361 0 1 0
554 185 1 0.5897 -2.7792098708971693 -6.615818816031815 7.8367607248564655 0 1 0
334 112 2 -1.1794 -4.251813791985041 -4.66338760223838 9.546893861633889 0 0 0
442 148 2 -1.1794 -7.2882538673201624 2.4187542899375902 9.545549628638765 0 0 0
338 113 1 0.5897 -5.8153131184937354 0.4670812916065774 7.83379010841488 0 0 0
627 209 1 0.5897 -10.257925721511672 -6.716403822921805 6.344562509102642 1 1 0
456 152 1 0.5897 -4.4039415572401746 0.653061172651876 9.857510159613375 0 0 0
360 120 1 0.5897 -5.394800386141851 -1.8234475776255472 8.958155239347727 0 0 0
328 110 2 -1.1794 -2.631732508360794 -0.7920309176855973 7.272335377833656 0 0 0
339 113 1 0.5897 -5.580721702893876 0.3633867013102279 6.341891707618754 0 0 0
455 152 1 0.5897 -4.125555895060725 1.6610200561727702 8.762936706284753 0 0 0
411 137 1 0.5897 -13.293467764486465 0.36338563183566563 6.341892358391736 1 0 0
444 148 1 0.5897 -6.423365283466542 2.0145788429038056 9.475327903677771 0 0 0
358 120 2 -1.1794 -4.7245274204752 -2.201419798788744 8.388900365540573 0 0 0
443 148 1 0.5897 -7.8996850772466365 1.6824592214113583 9.526654375386451 0 0 0
356 119 1 0.5897 1.1475693420680244 -7.052698028282988 10.136062951700445 0 0 0
616 206 2 -1.1794 -7.309584847257293 -7.8770948715114635 7.27459847235158 1 1 0
351 117 1 0.5897 -6.946936456690699 -2.9608159576630797 10.708118692922797 0 0 0
404 135 1 0.5897 -5.198343434614713 -3.724082219985906 5.767396210636168 1 0 0
633 211 1 0.5897 -5.751761058206899 -6.024913926272916 5.601374418385357 1 1 0
410 137 1 0.5897 -13.52805935170328 0.46708176442182925 7.833790625026265 1 0 0
434 145 1 0.5897 -6.394883455921362 -0.6574885863145514 10.872237633029089 0 0 0
626 209 1 0.5897 -10.491957975523881 -6.61582031496896 7.836761686674383 1 1 0
652 218 2 -1.1794 -5.666319475009287 -5.3949207421030785 12.658552252792086 0 0 0
780 260 1 0.5897 -7.440128905003541 -3.9480182793111585 15.240608159417713 0 0 0
779 260 1 0.5897 -7.16155822869795 -2.9379455091758215 14.148032114930057 0 0 0
778 260 2 -1.1794 -7.87490360337257 -3.404903029899785 14.583209384314069 0 0 0
768 256 1 0.5897 -9.457172888184093 -2.5870196748948384 14.861588375416256 0 0 0
654 218 1 0.5897 -6.101140054519249 -4.852371897158289 12.000716206309768 0 0 0
653 218 1 0.5897 -6.379789279151109 -5.860038430048066 13.095491711673601 0 0 0
662 221 1 0.5897 -8.850248099676003 -4.134814702227488 13.219843424585076 0 0 0
661 221 2 -1.1794 -9.287491664318082 -4.364286903733543 12.399825875867357 0 0 0
663 221 1 0.5897 -8.617607292353876 -4.239076271921631 11.727679038725922 0 0 0
684 228 1 0.5897 -8.430282093769206 -6.422608492033933 14.341871702181885 0 0 0
682 228 2 -1.1794 -7.75968296684342 -6.8012181301901755 13.7734250862733 0 0 0
758 253 1 0.5897 -9.429791023534664 -5.255233700540453 16.252772005986706 0 0 0
819 273 1 0.5897 -5.305706084402881 -0.4750789418428134 16.088688601939452 0 0 0
729 243 1 0.5897 -8.04389169410382 -7.077854041940844 11.989402092636537 1 0 0
727 243 2 -1.1794 -8.08491174875595 -7.382089707285379 11.082819944758931 1 0 0
766 256 2 -1.1794 -10.321714319658753 -2.182154627729483 14.93210920956866 0 0 0
806 269 1 0.5897 -4.1718523029335355 2.946763954150237 13.220695801214134 0 0 0
767 256 1 0.5897 -10.933780831343714 -2.9179057103606887 14.91259245751176 0 0 0
790 264 2 -1.1794 -10.794728014739457 0.2795379511352891 13.778598902846493 0 0 0
762 254 1 0.5897 -9.136142579863714 2.2278014268253017 12.000488678566537 0 0 0
761 254 1 0.5897 -9.416191972081034 1.2215605889440955 13.096217863144403 0 0 0
924 308 1 0.5897 -2.7611236571793203 3.1288960766895215 15.244670040251654 0 0 0
792 264 1 0.5897 -11.464592937770723 0.6568466001117077 14.348773287476783 0 0 0
836 279 1 0.5897 -11.268804308249921 -1.2420125296450717 11.152614686853157 1 0 0
760 254 2 -1.1794 -8.70205653305109 1.6850778260047647 12.6586654116104 0 0 0
837 279 1 0.5897 -11.078638146571162 0.00483035370553786 11.989858614724298 1 0 0
791 264 1 0.5897 -10.649906502168125 -0.5997866840277872 14.127770172827482 0 0 0
769 257 2 -1.1794 -12.321453361951853 2.719137348319906 12.3999557393684 0 0 0
788 263 1 0.5897 -4.922159158470969 -4.564910095377603 15.514596141494026 0 0 0
655 219 2 -1.1794 -0.3721627627081414 -7.382090137803155 11.082820622498389 0 0 0
896 299 1 0.5897 -7.957699242387684 2.51172235464165 15.51918264353583 0 0 0
807 269 1 0.5897 -3.938510344069303 2.8458814243050057 11.728408678303587 0 0 0
817 273 2 -1.1794 -5.4565513977286075 -1.4176710973039555 16.158842179233574 0 0 0
771 257 1 0.5897 -11.651256957219546 2.8458801499756827 11.728407045923033 0 0 0
897 299 1 0.5897 -7.727821358131157 2.414203625576075 14.02613444068327 0 0 0
678 226 1 0.5897 -4.084316866565147 -6.212238945314539 12.375306608536556 0 0 0
802 268 2 -1.1794 -2.6089675840634 -2.1821528875698775 14.932108820495756 0 0 0
816 272 1 0.5897 0.27261836602615297 -3.9480158493637383 15.240607490352986 0 0 0
888 296 1 0.5897 -10.473873731138168 3.1288962300087544 15.244671928945865 0 0 0
667 223 2 -1.1794 -3.8469195454465988 -2.959904817746434 11.699237852380366 0 0 0
789 263 1 0.5897 -4.692101739556098 -4.662765959383366 14.021597656748474 0 0 0
676 226 2 -1.1794 -3.2197184355690203 -6.617812465942077 12.309722535897949 0 0 0
814 272 2 -1.1794 -0.16215708016719077 -3.404900912976874 14.583208951030928 0 0 0
785 262 1 0.5897 -5.64027246201524 1.1966173770197734 12.334048905687881 0 0 0
657 219 1 0.5897 -0.33114235549487603 -7.0778533577891025 11.989402380443611 0 0 0
803 268 1 0.5897 -3.2210342956741087 -2.917903802188036 14.912592003584518 0 0 0
795 265 1 0.5897 -2.7932683254354895 -5.4589196971712415 15.207542615146128 0 0 0
720 240 1 0.5897 -0.7175322820609651 -6.4226072516558546 14.34187231898498 0 0 0
804 268 1 0.5897 -1.7444262238450072 -2.58701821613597 14.861588727474558 0 0 0
698 233 1 0.5897 -1.137501382220437 -4.134813293370646 13.21984379889294 0 0 0
699 233 1 0.5897 -0.9048597340271822 -4.239075324309493 11.727679576376483 0 0 0
697 233 2 -1.1794 -1.5747442500556108 -4.364286518652182 12.399826165254153 0 0 0
718 240 2 -1.1794 -0.04693427506573755 -6.801218897755174 13.773425719765639 0 0 0
677 226 1 0.5897 -2.6072911627010082 -5.882382674467802 12.330025245839325 0 0 0
668 223 1 0.5897 -3.0363148174348016 -3.3415901742243532 12.036253586194261 0 0 0
793 265 2 -1.1794 -1.9815594474095253 -5.8399739044256815 15.542610404874532 0 0 0
773 258 1 0.5897 -5.922685589286903 -1.118379230392474 13.12003452678399 0 0 0
774 258 1 0.5897 -5.11191131102275 -2.3774583956191675 12.898570677213012 0 0 0
818 273 1 0.5897 -5.498455444692103 -1.7221560998517464 15.252384045767984 0 0 0
787 263 2 -1.1794 -4.253842339606259 -4.435494795988072 14.841686072511662 0 0 0
901 301 2 -1.1794 -5.018910032669473 1.238815453145282 15.548286051185316 0 0 0
772 258 2 -1.1794 -5.78158178831126 -1.9987641032435066 13.468054317657959 0 0 0
827 276 1 0.5897 -2.937158568751542 -0.5997864766478962 14.127770522689595 0 0 0
765 255 1 0.5897 -3.365891453749544 0.004832175605411493 11.989857466068592 0 0 0
784 262 2 -1.1794 -6.252415122021116 0.46093623373254644 12.314282182705213 0 0 0
828 276 1 0.5897 -3.7518471903104587 0.6568453509432146 14.348773864254822 0 0 0
826 276 2 -1.1794 -3.08198165298111 0.2795379486151006 13.778599375914427 0 0 0
740 247 1 0.5897 -10.749060872092786 -3.3415891055827833 12.036254175504686 1 0 0
895 299 2 -1.1794 -7.2894098598826895 2.6411155182806922 14.84624105886678 0 0 0
903 301 1 0.5897 -5.830700209754989 1.618195696267298 15.211519227171644 0 0 0
786 262 1 0.5897 -7.117243461125762 0.866327422191171 12.377937424325985 0 0 0
805 269 2 -1.1794 -4.608706831709224 2.7191374414329825 12.399957066166516 0 0 0
866 289 1 0.5897 -12.467846239496431 1.8261736837347886 16.256548435405968 0 0 0
770 257 1 0.5897 -11.884598538971865 2.9467646712752185 13.220694093226992 0 0 0
797 266 1 0.5897 -1.7034469296357528 1.2215586082301595 13.096216974665342 0 0 0
764 255 1 0.5897 -3.5560595763765654 -1.2420125870412067 11.152616781771872 0 0 0
689 230 1 0.5897 1.3329582365460144 -5.860038925486029 13.095490505349897 0 0 0
835 279 2 -1.1794 -11.119185318442195 -0.2991720895144194 11.08317703606833 1 0 0
763 255 2 -1.1794 -3.406438166968252 -0.2991727107537123 11.083176686042444 0 0 0
865 289 2 -1.1794 -12.731656833904875 1.2388151475668803 15.548285981046755 0 0 0
794 265 1 0.5897 -1.7170426916566583 -5.255232752582248 16.252772769012843 0 0 0
902 301 1 0.5897 -4.7551002218565745 1.8261743879849224 16.25654846656809 0 0 0
757 253 2 -1.1794 -9.694308316891203 -5.839975362310776 15.542610261809745 0 0 0
669 223 1 0.5897 -4.110545649396373 -3.5448162534155143 10.988884792870723 0 0 0
1150 384 2 -1.1794 -6.117952766998993 -4.318139201512617 19.15741872790022 0 0 0
1152 384 1 0.5897 -6.787763796239911 -3.9409305248031403 19.727722629894615 0 0 0
1227 409 1 0.5897 -8.866289397755656 -2.981136346260506 20.59537834867004 0 0 0
1109 370 1 0.5897 -8.676904265306508 -3.4014369984839465 17.71335282606342 0 0 0
1089 363 1 0.5897 -6.402294474345452 -4.592449642199531 17.370083858133484 0 0 0
1151 384 1 0.5897 -5.972281502669295 -5.19711643077286 19.507110834232257 0 0 0
1108 370 2 -1.1794 -9.289440032490173 -4.136837595570729 17.695411157169872 0 0 0
1225 409 2 -1.1794 -8.054748969523086 -3.3612001450769178 20.931975841576943 0 0 0
1196 399 1 0.5897 -9.626668614947466 1.239117398822966 16.53448416285883 0 0 0
1233 411 1 0.5897 -1.7242668198254218 2.4863573188720682 17.371250864825022 0 0 0
1087 363 2 -1.1794 -6.442764063100995 -4.896537092670951 16.46342732256098 0 0 0
1143 381 1 0.5897 -8.340673591374284 -5.075988862510605 21.474035820558043 0 0 0
1130 377 1 0.5897 -7.208276205041718 -1.6492672591695943 18.599870933774028 0 0 0
1248 416 1 0.5897 -5.796590585850718 -1.465926395795897 20.62533651299693 0 0 0
1294 432 2 -1.1794 -1.4398558830270964 2.762877315602891 19.1547342181344 0 0 0
1129 377 2 -1.1794 -7.64431809509897 -1.8768655337035636 17.77869254899123 0 0 0
1218 406 1 0.5897 -13.190283338017938 3.3520176779165674 17.75696369429278 0 0 0
1131 377 1 0.5897 -6.973251396145868 -1.7507749035712727 17.10789038231973 0 0 0
1125 375 1 0.5897 1.3104534896558828 -4.592447328692925 17.370082971228058 0 0 0
1246 416 2 -1.1794 -6.231562052154583 -0.9233677931101401 19.96760821652512 0 0 0
1124 375 1 0.5897 1.1209230509278427 -5.839458756615167 16.532946085978153 0 0 0
1232 411 1 0.5897 -1.9139219230442883 1.239117579113092 16.53448236860205 0 0 0
1217 406 1 0.5897 -11.713191993648774 3.6815520815359424 17.71148135761782 0 0 0
1121 374 1 0.5897 -4.739207832650712 -3.373866127170528 18.474848696537634 0 0 0
1219 407 2 -1.1794 -10.325556142100044 -1.9569146876576973 20.226219762928956 0 0 0
1099 367 2 -1.1794 -9.914667739950351 -0.474115762797668 17.07505107572363 0 0 0
1236 412 1 0.5897 -7.816701884560077 -0.1018976660145281 20.241150308954794 0 0 0
1009 337 2 -1.1794 -11.087224271404951 3.7232741441853214 20.925717491690442 0 -1 0
1100 367 1 0.5897 -9.103940461757801 -0.8555830889171769 17.41201909926278 0 0 0
1234 412 2 -1.1794 -8.681520719427676 0.30258579960160326 20.31045195516122 0 0 0
1259 420 1 0.5897 -9.009302151873957 1.8837995939791412 19.505155515157504 0 0 0
1258 420 2 -1.1794 -9.152603148031853 2.7628771252504905 19.154737027526103 0 0 0
1260 420 1 0.5897 -9.823211904841338 3.141453545579557 19.72319444581401 0 0 0
1216 406 2 -1.1794 -12.325753097294236 2.9462140633993865 17.691906135885873 0 0 0
1197 399 1 0.5897 -9.437014305867905 2.486357058741282 17.37125295785801 0 0 0
1206 402 1 0.5897 -11.181905290790535 0.10590281556573622 18.277152952872818 0 0 0
1235 412 1 0.5897 -9.293078983403717 -0.433644653911438 20.293230299451565 0 0 0
1262 421 1 0.5897 -0.0772839503054179 -2.77378795195248 21.639855491722834 0 0 0
1285 429 2 -1.1794 -3.8147506660767228 1.0621162742274297 21.54257394657523 0 0 0
1110 370 1 0.5897 -10.15406177079029 -3.7308131998360725 17.757824743607486 0 0 0
1101 367 1 0.5897 -10.179989326448439 -1.0609778079080794 16.36694109527061 0 0 0
1096 366 2 -1.1794 -8.816795787098659 -6.5986506221272805 18.852976055206263 0 0 0
1187 396 1 0.5897 1.7404625074959057 -5.197115659113289 19.50711100245595 0 0 0
1287 429 1 0.5897 -3.662725982477893 2.0044591598000903 21.471620569795306 0 0 0
1045 349 2 -1.1794 -3.3744769234612235 3.7232751540142743 20.925716921805012 0 -1 0
1226 409 1 0.5897 -7.790031044678662 -2.7737873643767266 21.639854928172852 0 0 0
1165 389 2 -1.1794 0.06842957286977658 -1.8768628443177402 17.778691960670066 0 0 0
1205 402 1 0.5897 -11.99358021289604 1.3642540486748462 18.499454066939386 0 0 0
1250 417 1 0.5897 -11.569899651941409 0.7569339122986687 20.636373852503333 0 0 0
1252 418 2 -1.1794 -4.613005801438733 2.9462140908349426 17.691906123980083 0 0 0
1240 414 2 -1.1794 -4.139255691669167 0.48366192730857804 18.846756214814107 0 0 0
1204 402 2 -1.1794 -11.852001740529703 0.4836621566464583 18.846756613105285 0 0 0
1295 432 1 0.5897 -1.2965544190274798 1.8837993334615106 19.50515138335041 0 0 0
1247 416 1 0.5897 -5.518216977455823 -0.4580087214728099 19.53072207447557 0 0 0
1272 424 1 0.5897 -0.10395331260083651 -0.10189713224650987 20.24114973094322 0 0 0
1145 382 1 0.5897 -0.9641582763844454 -3.4014344114556216 17.713352713731133 0 0 0
1122 374 1 0.5897 -4.459954273465229 -2.3668750189609336 17.379605821149788 0 0 0
1242 414 1 0.5897 -3.469160869603753 0.1059027098927352 18.27715055820333 0 0 0
1270 424 2 -1.1794 -0.968772162871856 0.30258640074029053 20.31045079328922 0 0 0
1271 424 1 0.5897 -1.5803304538392862 -0.433644029579078 20.29322910217548 0 0 0
1144 382 2 -1.1794 -1.5766933588272192 -4.136835600893075 17.69541195969407 0 0 0
1263 421 1 0.5897 -1.1535414519894012 -2.9811353806746386 20.595377727034233 0 0 0
1133 378 1 0.5897 -1.2462129946902198 -5.718452146390837 18.5049114160732 0 0 0
1188 396 1 0.5897 0.9249831191947369 -3.940927557082798 19.727721031226537 0 0 0
1257 419 1 0.5897 -3.051158326657931 -2.183263973150554 19.40592509792822 0 0 0
1255 419 2 -1.1794 -2.612808720469478 -1.9569148224576587 20.226220204059118 0 0 0
1261 421 2 -1.1794 -0.34200172559461706 -3.361200124387924 20.93197584450771 0 0 0
1256 419 1 0.5897 -3.281019204139314 -2.0871919689887193 20.899069706060146 0 0 0
1120 374 2 -1.1794 -4.0254846957923185 -2.9091345656201764 18.037912117301893 0 0 0
1146 382 1 0.5897 -2.4413154927989265 -3.730811907874905 17.757824639034865 0 0 0
1195 399 2 -1.1794 -9.47801536354709 2.1820835889450745 16.464682637558795 0 0 0
1088 363 1 0.5897 -6.591825278214718 -5.8394598788797705 16.5329452810416 0 0 0
1296 432 1 0.5897 -2.1104646208956517 3.1414526341508395 19.72319239227184 0 0 0
1254 418 1 0.5897 -5.477536192964369 3.352017373762722 17.756963748799116 0 0 0
1135 379 2 -1.1794 -2.201922010506875 -0.47411549530364105 17.075051287642403 0 0 0
1286 429 1 0.5897 -3.857151570133948 0.7569331931015704 20.636373625575175 0 0 0
1136 379 1 0.5897 -1.3911943093414596 -0.8555823054301648 17.41201887803735 0 0 0
1047 349 1 0.5897 -4.18608306540329 4.104605309193834 20.590714404315243 0 -1 0
1241 414 1 0.5897 -4.280834287567783 1.364254324963424 18.499455000998616 0 0 0
1141 381 2 -1.1794 -8.491552571048299 -6.018587808639631 21.544025495072063 0 0 0
1178 393 1 0.5897 -0.8208126584710573 -6.32289796454401 20.637513486307938 0 0 0
1249 417 2 -1.1794 -11.527499440275246 1.062116477952035 21.542574379382074 0 0 0
1011 337 1 0.5897 -11.898830466167851 4.104605427528872 20.59071638685888 0 -1 0
1097 366 1 0.5897 -8.958959813945157 -5.718454831000178 18.50490947247691 0 0 0
1179 393 1 0.5897 -0.6279280531052844 -5.0759887375396255 21.474037259776033 0 0 0
1186 396 2 -1.1794 1.5947943283851096 -4.31813805761106 19.15741854667133 0 0 0
1253 418 1 0.5897 -4.00044503566932 3.6815524252093805 17.71148003141007 0 0 0
1229 410 1 0.5897 -7.772659876134558 3.704850024524065 18.47672908567609 0 0 0
1251 417 1 0.5897 -11.375473937525742 2.004459281074956 21.471621660355517 0 0 0
1177 393 2 -1.1794 -0.7788075911952888 -6.018587691277396 21.544025629697458 0 0 0
1231 411 2 -1.1794 -1.7652680218315293 2.1820836501451115 16.46468061778208 0 0 0
1123 375 2 -1.1794 1.2699829014765704 -4.896535849851022 16.46342683919928 0 0 0
1137 379 1 0.5897 -2.46724281685845 -1.0609768962278672 16.36694048121619 0 0 0
1142 381 1 0.5897 -8.53355827031083 -6.3228992319230715 20.63751376689754 0 0 0
1132 378 2 -1.1794 -1.1040499184094728 -6.598648690798596 18.852976482235974 0 0 0
1010 337 1 0.5897 -10.822386243816961 4.307991056657736 21.63578016126644 0 -1 0
1046 349 1 0.5897 -3.109640930889282 4.3079924495565916 21.635780034351647 0 -1 0
1221 407 1 0.5897 -10.763904565856613 -2.183264056052039 19.405924085352943 0 0 0
40 14 2 -1.1794 -15.022056269108617 3.8046824815668483 1.8905893846285526 1 0 0
177 59 1 0.5897 -14.047733034174005 4.530966558570119 3.2591354645705386 1 0 0
56 19 1 0.5897 -12.388040028193412 5.859515412425612 1.2637997886395231 1 0 0
66 22 1 0.5897 -13.43728982879695 2.9835852354487944 1.6107402209268022 1 0 0
65 22 1 0.5897 -11.960182352212671 3.3132318448645357 1.5666098829403188 1 0 0
64 22 2 -1.1794 -12.572590630412645 2.5777349858264156 1.5482665507311197 1 0 0
191 64 1 0.5897 -12.576560031276943 6.281292712085705 4.146283591062238 1 0 0
183 61 1 0.5897 -12.150523186840681 3.733534126114945 4.447431267050352 1 0 0
175 59 2 -1.1794 -13.609332848233302 4.757369102828877 4.079388829828625 1 0 0
176 59 1 0.5897 -14.277563154611133 4.627335309854809 4.7522656850893945 1 0 0
181 61 2 -1.1794 -11.338884472968624 3.3539509790213415 4.7843342900412935 1 0 0
55 19 2 -1.1794 -13.1984378704284 6.241464461572727 0.9265854790267294 1 0 0
42 14 1 0.5897 -15.456291752628676 4.347100595490341 1.2322593379958617 1 0 0
108 36 1 0.5897 -10.071407862791657 2.7737348117073264 3.5815796154125574 1 0 0
215 72 1 0.5897 -12.29269171636629 8.599485668518833 3.356286467908869 1 0 0
190 64 2 -1.1794 -11.96476866209483 7.017342795008007 4.162926535263248 1 0 0
135 45 1 0.5897 -6.946440635756085 8.71920500306396 5.324419834255737 0 0 0
153 51 1 0.5897 -12.721190975168769 9.202413081341009 1.2221404825936233 1 0 0
216 72 1 0.5897 -13.107083002363021 9.856778603321109 3.5746096615370293 1 0 0
162 54 1 0.5897 -14.46572029828391 6.820786738141175 2.1301948783651667 1 0 0
93 31 1 0.5897 -5.751066244639314 5.654841681348518 0.2182963505697964 1 0 0
148 50 2 -1.1794 -18.05633524461984 10.887164433317965 1.8904778220719567 1 0 0
174 58 1 0.5897 -16.47430412804571 10.067436585035344 1.6080180571860145 1 0 0
214 72 2 -1.1794 -12.436582218339195 9.478460838571005 3.00585276593707 1 0 0
43 15 2 -1.1794 -9.72633379494897 1.818585210931003 0.3158903797506852 1 0 0
206 69 1 0.5897 -14.853374306644824 7.471842607656784 4.488873481464748 1 0 0
160 54 2 -1.1794 -15.135716296750665 7.198442912778104 2.6999850696364733 1 0 0
173 58 1 0.5897 -14.99714612556533 10.396665249776946 1.5624867473887227 1 0 0
85 29 2 -1.1794 -10.927967733364847 4.8379263702606945 1.6315461304117589 1 0 0
219 73 1 0.5897 -7.47029766035105 10.81903089908167 4.443490041425679 0 0 0
291 97 1 0.5897 -15.183044381924503 10.819032425705585 4.443489926853744 1 0 0
161 54 1 0.5897 -15.27770191603248 8.07892637965543 2.352573857007305 1 0 0
172 58 2 -1.1794 -15.609825240909508 9.661404904301774 1.5437049957350841 1 0 0
289 97 2 -1.1794 -14.371535933810845 10.437674622591773 4.77869749777394 1 0 0