LAMMPS (30 Jul 2021)
Processor partition = 1
  using 1 OpenMP thread(s) per MPI task
using multi-threaded neighbor list subroutines
variable        pid world 0 1
variable        phase world IceII IceIII

shell cd ${phase}
shell cd IceIII
include Restart.lmp
echo both
log log.lammps
#include		in.partitions
include		in.temp
variable        temperature equal 81.29
variable	tempDamp equal 100.0
include		in.pressure
variable        pressure equal 918.8
variable        pressureDamp equal 1000.0 # This is 1 ps
include		in.seed
variable        seed equal 745823

units		real
atom_style	full

read_restart	restart.lmp.${pid}
read_restart	restart.lmp.1
Reading restart file ...
  restart file = 30 Jul 2021, LAMMPS = 30 Jul 2021
  restoring atom style full from restart
  orthogonal box = (0.0027186782 0.051443149 -0.087511579) to (19.997282 19.948558 20.787510)
  4 by 4 by 4 MPI processor grid
  restoring pair style lj/cut/tip4p/long/omp from restart
  restoring bond style harmonic/omp from restart
  restoring angle style harmonic/omp from restart
  972 atoms
  648 bonds
  324 angles
Finding 1-2 1-3 1-4 neighbors ...
  special bond factors lj:    0        0        0       
  special bond factors coul:  0        0        0       
     2 = max # of 1-2 neighbors
     1 = max # of 1-3 neighbors
     1 = max # of 1-4 neighbors
     2 = max # of special neighbors
  special bonds CPU = 0.008 seconds
  read_restart CPU = 0.022 seconds
include 	in.setup
variable	out_freq equal 1000
variable	out_freq2 equal 10000
variable	out_freq3 equal 1000

timestep	2.0

neigh_modify    delay 7 every 1

include		in.tip4p
# This is TIP4P/Ice

# create groups ###
group ox type 2
324 atoms in group ox
group hy type 1
648 atoms in group hy

# set charges - beside manually ###
set group ox charge -1.1794
Setting atom values ...
  324 settings made for charge
set group hy charge 0.5897
Setting atom values ...
  648 settings made for charge

# ### TIP3P Potential Parameters ###
pair_style lj/cut/tip4p/long/omp 2 1 1 1 0.1577 8.5
pair_coeff 1 1*2 0.000 0.000
pair_coeff 2 2 0.21084 3.1668
bond_style  harmonic
bond_coeff  1 450 0.9572
angle_style harmonic
angle_coeff 1 55 104.52
kspace_style pppm/tip4p/omp 1.0e-5
pair_modify tail yes

thermo          ${out_freq}
thermo          1000
thermo_style    custom step temp pe etotal epair emol press lx ly lz vol pxx pyy pzz pxy pxz pyz enthalpy

restart 	${out_freq3} restart.lmp.${pid} restart2.lmp.${pid}
restart 	1000 restart.lmp.${pid} restart2.lmp.${pid}
restart 	1000 restart.lmp.1 restart2.lmp.${pid}
restart 	1000 restart.lmp.1 restart2.lmp.1


include         in.dump
dump            myDump all atom ${out_freq2} dump.water.${pid}
dump            myDump all atom 10000 dump.water.${pid}
dump            myDump all atom 10000 dump.water.1
dump            myDump2 all dcd ${out_freq2} dump.dcd
dump            myDump2 all dcd 10000 dump.dcd
dump_modify     myDump append yes
dump_modify     myDump2 append yes


variable natoms 	equal  "count(all)"                        # NUMBER ATOMS
variable H      	equal  "enthalpy/v_natoms"                 # ENTHALPY-per-atom
variable Vol      	equal  "vol/v_natoms"                 # volume-per-atom
fix AVG all 		ave/time ${out_freq} 1 ${out_freq} v_Vol v_H file vol_enthalpy.dat
fix AVG all 		ave/time 1000 1 ${out_freq} v_Vol v_H file vol_enthalpy.dat
fix AVG all 		ave/time 1000 1 1000 v_Vol v_H file vol_enthalpy.dat


timer           timeout 02:55:00 every 1000
New timer settings: style=normal  mode=nosync  timeout=02:55:00

fix 		1 all shake 1e-6 200 0 b 1 a 1
Finding SHAKE clusters ...
       0 = # of size 2 clusters
       0 = # of size 3 clusters
       0 = # of size 4 clusters
     324 = # of frozen angles
  find clusters CPU = 0.001 seconds
fix             2 all nph aniso ${pressure} ${pressure} ${pressureDamp}
fix             2 all nph aniso 918.8 ${pressure} ${pressureDamp}
fix             2 all nph aniso 918.8 918.8 ${pressureDamp}
fix             2 all nph aniso 918.8 918.8 1000
fix             3 all temp/csvr ${temperature} ${temperature} ${tempDamp} ${seed}
fix             3 all temp/csvr 81.29 ${temperature} ${tempDamp} ${seed}
fix             3 all temp/csvr 81.29 81.29 ${tempDamp} ${seed}
fix             3 all temp/csvr 81.29 81.29 100 ${seed}
fix             3 all temp/csvr 81.29 81.29 100 745823


run             250000
PPPM initialization ...
  extracting TIP4P info from pair style
  using 12-bit tables for long-range coulomb (../kspace.cpp:340)
  G vector (1/distance) = 0.3724521
  grid = 24 24 25
  stencil order = 5
  estimated absolute RMS force accuracy = 0.0034017917
  estimated relative force accuracy = 1.0244395e-05
  using double precision FFTW3
  3d grid and FFT values/proc = 2366 288
Last active /omp style is kspace_style pppm/tip4p/omp
Neighbor list info ...
  update every 1 steps, delay 7 steps, check yes
  max neighbors/atom: 2000, page size: 100000
  master list distance cutoff = 10.8154
  ghost atom cutoff = 10.8154
  binsize = 5.4077, bins = 4 4 4
  1 neighbor lists, perpetual/occasional/extra = 1 0 0
  (1) pair lj/cut/tip4p/long/omp, perpetual
      attributes: half, newton on, omp
      pair build: half/bin/newton/omp
      stencil: half/bin/3d
      bin: standard
Setting up Verlet run ...
  Unit style    : real
  Current step  : 4500000
  Time step     : 2
  Walltime left : 2:54:59.90
Per MPI rank memory allocation (min/avg/max) = 9.228 | 9.232 | 9.238 Mbytes
Step Temp PotEng TotEng E_pair E_mol Press Lx Ly Lz Volume Pxx Pyy Pzz Pxy Pxz Pyz Enthalpy 
 4500000     86.88836    -5078.501   -4910.9295    -5078.501            0    1952.3816    19.994564    19.897115    20.875021    8304.7958    2901.6075    1380.9735    1574.5639    7.0975125    133.15597   -1067.6099   -4674.4631 
 4501000    81.632098   -5093.9056   -4936.4713   -5093.9056            0    1764.7243    19.946457    20.024245     20.71532     8273.963    1601.3525    2484.1107    1208.7097   -426.48866   -164.79922   -15.745327   -4723.5268 
 4502000    80.543587   -5087.1481    -4931.813   -5087.1481            0     627.3953    19.986019    20.096912    20.747729    8333.4762    705.14817    463.16592    713.87181   -142.19738    716.88042   -177.62412   -4855.5624 
 4503000    79.450556   -5089.3136   -4936.0865   -5089.3136            0    905.70842    19.917851    20.028647    20.945491    8355.7345    599.23323     1367.441    750.45103   -482.96548    917.30727   -389.85849   -4825.7171 
 4504000    79.901345   -5099.9746   -4945.8782   -5099.9746            0    373.01902      19.9948    19.929848    20.960182    8352.4923     1238.537    43.244406   -162.72431   -87.129183    478.39743    164.57876   -4900.4398 
 4505000    75.785349   -5077.8232   -4931.6647   -5077.8232            0    471.85516    19.955802    19.987856    21.033856    8389.8521    1615.0831   -284.65373    85.136113   -371.29093    653.38612   -834.58994   -4873.9298 
 4506000    83.526455   -5088.4439   -4927.3561   -5088.4439            0    904.69699    20.044914    19.921942    21.025314    8396.1142  -0.95461203    1701.6651    1013.3805   -291.21046    381.38883    362.58714   -4816.5772 
 4507000    84.728428   -5095.1381   -4931.7322   -5095.1381            0    345.25563    19.943684    19.940857    21.002149    8352.4321    355.30907    1518.7833   -838.32548    170.38468    13.866542   -767.49872   -4889.6761 
 4508000    83.630388   -5091.8015   -4930.5132   -5091.8015            0    614.22527    19.887085    20.034815     20.82261    8296.4373    1020.5894    53.524366      768.562   -253.19816   -768.27847    96.777287    -4856.195 
 4509000     87.52483   -5092.5595   -4923.7605   -5092.5595            0     1891.652    19.921124    19.962859    20.836962    8286.4973    766.48068    2566.3881    2342.0872   -210.85187     277.6004    338.90659   -4695.1543 
 4510000    82.488111     -5087.74   -4928.6547     -5087.74            0    1380.3169    20.072356    19.936752    20.842767     8340.808    1423.3491    1056.7586     1660.843     82.32965     552.0946   -598.90044     -4760.75 
 4511000    78.153166   -5086.8955   -4936.1706   -5086.8955            0    306.94615    20.061709    19.895145    20.954966    8363.7685     656.5002     364.8611   -100.52285   -376.27074    131.73183    79.640605   -4898.7302 
 4512000    83.490832   -5080.2523   -4919.2332   -5080.2523            0    1893.7417    19.939796    19.926045    20.993321    8341.0928    3299.7106    1081.4241    1300.0905   -108.37144    606.00187    410.87572   -4688.8666 
 4513000    82.803425   -5080.0841   -4920.3908   -5080.0841            0    1418.5775    19.958477    19.896667    20.948178    8318.6717     695.6465    2061.0422    1499.0439    -438.5517    506.47695   -229.70767     -4748.29 
 4514000    81.198651   -5092.5011   -4935.9027   -5092.5011            0    1283.5261    19.955717    19.891148    20.911823    8300.7833    1156.3471    1904.2617    789.96959   -438.49245    68.903485    739.80132    -4780.521 
 4515000    81.701481   -5093.0289   -4935.4607   -5093.0289            0    753.51089    19.942346    19.984542    20.957053    8352.1955    282.26068    1384.5019    593.77007    88.513526     537.6538   -183.58935   -4843.6769 
 4516000    79.217837   -5086.9075   -4934.1292   -5086.9075            0    2097.0067    19.999998    19.947501    20.792282    8295.0806    2058.7863    1627.9967     2604.237     51.75583   -267.35423   -250.19586   -4680.4433 
 4517000    84.018556   -5095.8838    -4933.847   -5095.8838            0     628.0158    19.893634    20.168087    20.774506    8335.0756    1370.1421    -142.0281    655.93344    112.97863    433.52002    390.62737   -4857.5063 
 4518000    79.376811   -5096.4216   -4943.3367   -5096.4216            0    1070.2733    19.999247    19.949289    20.857779    8321.6438    2320.8971    879.41888    10.503996    -316.8149    374.31331    259.22629   -4813.4455 
 4519000    82.274707   -5093.6929   -4935.0193   -5093.6929            0     147.1318    20.102621    20.085053    20.717589    8364.9795    148.51424   -603.80299    896.68414   -416.86299   -535.22054    -746.0477     -4917.07 
 4520000    81.653117   -5092.7991   -4935.3242   -5092.7991            0    478.87431    19.960371    19.954634     20.96925     8352.092    1824.9064   -259.51659   -128.76687    51.052204    129.57308     175.4081   -4876.9941 
 4521000    80.014949   -5098.3766    -4944.061   -5098.3766            0    268.88361    20.086773    19.986244    20.823627    8359.8355    235.30961    33.528938    537.81227   -791.50689    33.318518   -385.07101   -4911.2788 
 4522000    80.502651   -5088.7628   -4933.5066   -5088.7628            0    850.04312     20.02237    20.023846    20.746936    8317.9625    1303.4617   -101.20649    1347.8741    -328.2111    194.28746   -297.68487   -4830.3888 
 4523000    80.359508   -5097.3004   -4942.3203   -5097.3004            0    875.35868    19.984502    19.934347    20.849116    8305.8293    937.62631    964.56604     723.8837   -145.88914    87.087581    340.59564   -4836.2864 
 4524000    87.523686   -5088.8771   -4920.0803   -5088.8771            0    1131.2223    20.015572    19.998691    20.804071    8327.5623    1404.1115    640.21528      1349.34    389.32314    313.78135    168.69099   -4782.6946 
 4525000    85.855523   -5091.1964   -4925.6168   -5091.1964            0    1149.7019    20.024551    19.963021    20.789613    8310.6586     931.1306    1475.1409    1042.8342    564.95909    77.347146    962.21259   -4786.2702 
 4526000    88.073946   -5094.7591    -4924.901   -5094.7591            0    1069.8585    19.970642    19.899481    20.923054    8314.9352    614.32396    1737.6769    857.57446    -464.9081    698.63324    158.08291   -4795.1649 
 4527000    82.094744   -5079.7891   -4921.4625   -5079.7891            0     1901.422    19.864771    20.072485    20.820121    8301.7172    2065.5888    1501.9402    2136.7371   -55.576818    640.19256   -233.95626   -4691.2535 
 4528000    80.170263   -5096.1754   -4941.5603   -5096.1754            0    339.63921    20.071242    20.026628    20.805479    8362.9553    359.36703   -212.31924    871.86983    14.201607    119.83141    539.55557   -4900.1362 
 4529000    82.314997   -5087.8332   -4929.0818   -5087.8332            0    914.64625    19.950251    19.992217    20.938642    8351.3722    1833.4143   -127.35769    1037.8822   -177.88021    351.78637    736.84575   -4817.6814 
 4530000    81.205769   -5086.6597   -4930.0476   -5086.6597            0   -251.08837    19.984397    20.039727    20.961882    8394.8531    123.91604   -576.34929   -300.83186    198.49625   -126.18764    613.96932   -4960.7884 
 4531000    86.718466   -5091.6014   -4924.3575   -5091.6014            0    1446.7996    20.030532    19.947001    20.750546    8290.8608    1228.5567    1505.7506    1606.0914   -49.575031   -671.21124    1.6776114   -4749.4196 
 4532000    81.792561    -5089.822   -4932.0781    -5089.822            0    711.29816    20.093495    19.950821    20.826877    8349.1142    474.66369    687.65896    971.57184   -202.02963   -361.35073   -65.246165   -4845.4682 
 4533000    81.824743   -5089.7562   -4931.9503   -5089.7562            0     890.6912    20.027321    20.014131     20.81011    8341.3041    1139.2355    565.61181    967.22626    18.136731    515.52244     258.5304   -4823.5983 
 4534000    80.802694   -5096.2606   -4940.4258   -5096.2606            0    893.25162    19.975819    19.951222     20.91051    8333.7164    1397.2757    449.44063     833.0385   -153.23466   -81.652767     224.0941   -4831.8611 
 4535000    78.109047   -5100.9529   -4950.3131   -5100.9529            0    951.10605    20.107765    19.928678    20.780182    8327.0587   -610.88004    2257.3074    1206.8908   -32.666018    478.84516     624.6557   -4834.8092 
 4536000    79.333373    -5095.085   -4942.0839    -5095.085            0    881.50624    20.046515    19.966538    20.733993    8298.9777    852.64932    709.75955    1082.1099   -259.42668    394.41352   -653.45213   -4835.3934 
 4537000    80.770699   -5090.6457   -4934.8726   -5090.6457            0    291.60572    19.924489    20.114616     20.80918    8339.7668    1401.2999   -456.62347   -69.859304   -384.91184   -262.68545    100.69239   -4899.4055 
 4538000    84.509848   -5092.7125   -4929.7282   -5092.7125            0    502.24189    19.921833    19.951897    20.952902    8328.3252    536.22928     828.8766     141.6198    206.87558   -620.17626   -501.94487   -4868.7258 
 4539000    77.454315    -5086.474   -4937.0969    -5086.474            0    1496.5615    19.990999    19.864872    20.882225    8292.7209    1539.1451    1864.2739    1086.2655   -10.023911   -34.971308   -889.07461   -4756.1015 
 4540000    83.302418   -5096.0517    -4935.396   -5096.0517            0    1168.1768     19.98131    19.851871    21.073558     8359.172     907.5148    1831.0604    765.95532   -520.71013    1631.7557    77.069235   -4792.9836 
 4541000    81.031808   -5087.2048   -4930.9282   -5087.2048            0    1283.3578    20.062868    19.831955    20.842233    8292.8304    1512.9055    1344.6893     992.4786   -470.00617   -261.69563   -409.67907   -4775.7158 
 4542000    78.416016   -5087.4015   -4936.1696   -5087.4015            0    555.52648    20.037106    19.893208    20.906389     8333.335   -940.56241    1809.1345    798.00732   -315.83301   -829.91759   -176.96293   -4868.6547 
 4543000    84.116311    -5088.873   -4926.6476    -5088.873            0    1735.9344    20.107394    19.893115    20.762592    8305.0098     1289.913    1787.3411    2130.5492    59.860117    466.51457   -809.08283   -4716.3912 
 4544000    79.456767   -5095.4271    -4942.188   -5095.4271            0    811.55144    20.092809     19.89699    20.832236    8328.4446    -184.8636     1320.267    1299.2509   -528.32123    771.66035   -453.77798   -4843.6155 
 4545000    78.307806    -5096.655   -4945.6318    -5096.655            0     329.3169    19.945886    20.079406    20.872098    8359.3072    241.15617    500.10753    246.68699    59.868171    27.264635    296.43706   -4905.4841 
 4546000    77.499376   -5089.8637   -4940.3996   -5089.8637            0    1078.6289     20.10397    19.904526    20.824395    8333.0896    203.47449    1495.7394    1536.6727    152.37041   -416.59753    393.23396   -4809.3143 
 4547000    79.669828   -5088.4777   -4934.8278   -5088.4777            0    1601.6254    20.016843     19.92896    20.900261    8337.4248    2159.1369    1050.8206    1594.9187    -59.01177     391.4384    161.41107   -4740.0817 
 4548000    77.874032   -5092.5331   -4942.3465   -5092.5331            0    651.28271    19.901015    20.062242     20.94513    8362.5314    989.94076    1182.9611   -219.05369    333.57715   -740.78493    188.33283   -4862.9167 
 4549000    81.422926    -5087.789    -4930.758    -5087.789            0    1141.2461    19.947731    20.026427    20.851913    8329.9594    1924.0731    105.55031     1394.115    3.0944291      -139.54    528.65282    -4792.115 
 4550000    83.084877   -5102.4279   -4942.1917   -5102.4279            0    965.19078    19.977666    19.926753    20.840201    8296.2759    501.00391     1373.105    1021.4634   -81.448046     666.7435    588.63903   -4825.4107 
 4551000    85.946023   -5080.9483   -4915.1942   -5080.9483            0     184.4489    20.033294    19.996252    20.806004    8334.6936   -1263.5562    1046.9825    769.92038    289.21152   -136.02608   -284.62257   -4892.7739 
 4552000    78.925889   -5092.8891   -4940.6739   -5092.8891            0    1169.4998    19.963265     20.00607    20.929679    8359.0304    1412.8952    603.53293    1492.0714   -306.56333    747.13119    961.19149   -4798.1026 
 4553000    80.752574   -5100.6581     -4944.92   -5100.6581            0    604.20918    19.969067    19.980345    20.803167    8300.2318    442.91277    1142.2584     227.4564    394.02284    207.76238    150.44727   -4871.7802 
 4554000    81.944242   -5083.8873   -4925.8509   -5083.8873            0    938.96186    19.977429    20.007868    20.820893    8322.2308    1429.0684    1086.2935    301.52371   -192.49872   -131.57288   -688.72992    -4811.888 
 4555000    80.392664   -5089.3704   -4934.3264   -5089.3704            0    1365.1182    19.927183    20.091051    20.845442    8345.6404    1321.6005    1861.3928    912.36141   -481.88229    507.12405    252.01988   -4768.1743 
 4556000    85.297956   -5086.0845   -4921.5802   -5086.0845            0    1455.4833    19.939507    19.960869    20.946858    8337.0566    1236.8605    2158.0965    971.49286    -417.3021   -161.54078    23.792168   -4744.6118 
 4557000    76.894468   -5091.3971   -4943.0996   -5091.3971            0    908.83158    20.010692    19.944332    20.839259    8316.9458    141.75564    1607.8891    976.85004   -215.11109    740.91955   -704.86785   -4832.8637 
 4558000    82.085118   -5089.9565   -4931.6485   -5089.9565            0     997.5438    20.069842    19.954777    20.745348    8308.2879    977.27117    1015.0557    1000.3045    422.00364    61.581297   -370.83718   -4810.7782 
 4559000     76.27234   -5083.7231   -4936.6255   -5083.7231            0    571.70922    20.005787    20.044939    20.825898     8351.493    1234.3585    22.125675    458.64352   -56.965207     752.3841    218.59442   -4866.9925 
 4560000    80.412003   -5090.4051   -4935.3238   -5090.4051            0    785.31131    20.014952    19.983979    20.838359    8334.8932    2400.2469   -948.48898    904.17606   -152.43525    273.54387    36.756651   -4839.8646 
 4561000    81.640506   -5089.1702   -4931.7196   -5089.1702            0    1328.7358    20.072188    19.968646    20.758459    8320.2895    305.57693    1593.8871    2086.7434    183.16281    195.78385    -433.5821   -4770.4869 
 4562000    85.702319   -5083.7303   -4918.4461   -5083.7303            0    854.95445    19.979691     19.91387    20.866124    8302.0668    763.45748    983.26614    818.13973   -391.84706   -308.69707   -342.63269   -4814.9307 
 4563000    81.407262   -5082.7799   -4925.7791   -5082.7799            0    800.86458     20.07075    20.010956    20.676039    8304.2189    477.53267    1027.4246    897.63643    65.848082   -300.81926    416.86379   -4828.7876 
 4564000    81.197557   -5092.0141   -4935.4178   -5092.0141            0    454.73563    20.107862    19.926997    20.820919    8342.7197    493.89843    83.363335    786.94513   -278.81434    193.53688    57.396433   -4880.0901 
 4565000    83.090659   -5097.6843    -4937.437   -5097.6843            0    1097.3559      20.0384       19.933    20.716884      8274.85   -755.94291    1965.3506    2082.6601   -19.197526    831.80159    266.58649   -4805.0078 
 4566000    84.320262   -5084.2366   -4921.6179   -5084.2366            0    454.34208    20.009037    19.974579    20.841316    8329.6925    773.38927    842.50364   -252.86666   -200.50591   -445.92734   -47.221598   -4866.4244 
 4567000    79.662805   -5093.3179   -4939.6814   -5093.3179            0   -436.85572    20.058309    19.966225    20.837755    8345.2859   -987.92546    508.94468   -831.58638   -133.68716    687.03016    97.828661     -4992.85 
 4568000    78.617317   -5086.5654   -4934.9453   -5086.5654            0    891.86445    20.105294    19.957686    20.746058    8324.4623    -152.6639    1658.5412     1169.716    43.132774     408.7297   -542.50305   -4826.6696 
 4569000    78.722182   -5098.2277   -4946.4053   -5098.2277            0     1105.554    19.996409    20.057476    20.819076    8350.0627     1116.115     305.4115    1895.1357    156.97822    177.79055    361.02885   -4811.7742 
 4570000    77.193998   -5080.0142   -4931.1391   -5080.0142            0    1076.2132    19.969556     19.97424    20.902877     8337.671    1127.8689    1321.6131    779.15778    25.115016   -415.13973    334.73041   -4800.2755 
 4571000    79.415868   -5085.4947   -4932.3345   -5085.4947            0    707.64439     19.94953    20.005215    20.826969    8311.9319    1160.1705     38.03688    924.72583    91.782561     -256.433   -487.79922   -4846.5532 
 4572000    87.291151   -5083.8832   -4915.5348   -5083.8832            0    476.49043     19.93643    20.029092    20.922931     8354.706    809.36357    304.98083    315.12688   -404.28754   -226.32863   -590.72691   -4857.4769 
 4573000    79.389599   -5101.2546   -4948.1451   -5101.2546            0    836.62982    20.029388    19.899174    20.926542    8340.6562    1221.9792    979.55738    308.35286   -570.27391    760.57178    993.48811   -4846.3775 
 4574000    77.390466   -5089.4893   -4940.2353   -5089.4893            0    1314.5693     19.95228    19.981202    20.804402     8294.102    2716.9005   -120.47443    1347.2819   -140.89384    1093.0952   -1432.2544   -4781.2237 
 4575000    80.045457   -5094.0282   -4939.6538   -5094.0282            0    950.86973    19.990586    19.925432    20.913888    8330.4421    961.26665    720.84697    1170.4956   -152.36492    110.27849    158.81937   -4824.1317 
 4576000    82.606601   -5096.3945   -4937.0808   -5096.3945            0    540.79566    19.997564    19.975451    21.024798    8398.5738    1253.4866    447.58796   -78.687579   -367.34634   -428.13342   -559.77626   -4870.8416 
 4577000    75.957432   -5095.4597   -4948.9694   -5095.4597            0    326.03413    19.956062     20.02626    21.033791    8406.0554    1293.7803   -930.36411    614.68618    -336.7933    152.59961   -163.38553   -4908.9997 
 4578000    84.261162    -5085.712   -4923.2072    -5085.712            0      467.947    20.070786    19.856075    20.906004    8331.6082    1417.8841   -85.726895    71.683842   -482.66434     120.6925   -270.55817   -4866.3479 
 4579000    81.580022   -5096.2867   -4938.9527   -5096.2867            0    567.91672    20.054384    19.801299    21.039255    8354.7481      925.625    1077.9318   -299.80663    41.625529     881.6771   -504.45737   -4869.7547 
 4580000    82.128702   -5086.9805   -4928.5884   -5086.9805            0    394.72411    20.068321    19.947629    20.890365    8362.7354    804.45698   -215.69525    595.41059    -290.1677   -32.349001    258.06361   -4880.4471 
 4581000    86.442073   -5096.6638    -4929.953   -5096.6638            0    607.70763    20.015628    19.977554    20.812461    8322.1394    444.56526    1246.8314    131.72619    80.252184      396.358   -63.968058   -4856.1956 
 4582000    77.708862   -5093.5982   -4943.7301   -5093.5982            0    302.31703    19.998205    20.067798    20.828679    8358.9639    997.68071   -301.37616    210.64655   -387.84542     446.6426    152.27058   -4906.8756 
 4583000    83.456994   -5092.0904   -4931.1366   -5092.0904            0    506.11548    19.912493    20.025992     20.97034    8362.2883    557.52604    314.69657    646.12382   -231.24735    527.29832    20.921747   -4869.4131 
 4584000    87.191003   -5091.9637   -4923.8085   -5091.9637            0    1007.8833    19.964102     19.97894    20.931659    8348.8353    1716.5559    484.23995    822.85408   -875.22389    201.66572   -194.13048   -4801.0894 
 4585000    80.756593   -5095.6596   -4939.9137   -5095.6596            0   -98.965616    19.980236    19.936712    21.022571    8374.1354   -796.20942    417.75186    81.560716    -245.5203    309.05371    327.54151   -4952.0002 
 4586000    81.900933   -5096.6288    -4938.676   -5096.6288            0    234.75408    20.027179    19.962563    20.879266    8347.4015    1102.6587    -286.8258   -111.57066    -297.6846   -284.08016    143.20711   -4910.0974 
 4587000    79.030478   -5090.9953   -4938.5783   -5090.9953            0    1262.9792    20.105316    19.872681    20.815808    8316.8844     501.6255    1912.5921      1374.72   -95.985975   -862.56608    153.48026   -4785.3875 
 4588000    81.422582    -5089.781   -4932.7507    -5089.781            0    1412.7399    19.917236    19.992678    20.838828    8297.9981    1400.4146     1564.564     1273.241   -75.023603   -154.09097   -224.07927    -4761.784 
 4589000    73.265736   -5089.3985   -4948.0993   -5089.3985            0    651.95595    20.022387    20.069631    20.663198    8303.3391    809.03261   -6.2136813    1153.0489   -94.392584   -601.18592    54.808669   -4869.1503 
 4590000    77.923398   -5088.7919   -4938.5101   -5088.7919            0    1075.6265    19.966127    19.955583    20.879915    8319.3034    755.78591    1026.2559    1444.8377   -501.53744   -639.53441    1000.9703   -4808.0059 
 4591000    78.207874   -5090.0532   -4939.2228   -5090.0532            0    747.82311    19.977561    19.921995    21.043865    8375.3085    1060.0574    1300.1326   -116.72074    -1.380822    478.58515    1388.9929   -4847.8797 
 4592000    81.797691   -5095.9632   -4938.2094   -5095.9632            0    1079.6773    19.997405    19.995692     20.84082    8333.4508    1054.1079    1139.1259    1045.7981   -231.44705    412.43757   -111.13117    -4806.991 
 4593000    86.528732   -5095.4149    -4928.537   -5095.4149            0    223.66776    20.028675    19.933847    21.006029    8386.6266    1065.8866    196.23759   -591.12094    116.02198   -283.15567    487.31191   -4901.1801 
 4594000     77.43146   -5085.0344   -4935.7013   -5085.0344            0    977.59044    20.014536    19.956118     20.99277    8384.7738    400.00043    1309.6112    1223.1597    271.99305    155.23551   -433.47252   -4816.1583 
 4595000    77.269485   -5095.6803   -4946.6596   -5095.6803            0    922.88348    19.975298    19.931215     20.88614    8315.4399    478.44044    1379.3431    910.86691   -71.922897   -159.41819   -517.91744   -4834.7395 
 4596000    83.842627   -5093.4335   -4931.7359   -5093.4335            0    929.48478    19.919535    19.948079    20.928042    8315.8926    1802.4672    443.23529    542.75184    143.85925    746.31157    106.44415   -4819.0092 
 4597000    82.902248   -5094.2852   -4934.4013   -5094.2852            0    501.44557    20.024676    19.943898    20.824952    8316.8635   -54.346228    662.30683    896.37611   -193.13057     834.5207     -267.973   -4873.5795 
 4598000    83.814694   -5099.0767    -4937.433   -5099.0767            0    722.64959    20.079852    20.011601    20.826788    8368.8281     858.7766    207.33468    1101.8375   -30.579737    475.26573     660.3568   -4849.2331 
 4599000    81.895279   -5091.8274   -4933.8854   -5091.8274            0    950.14722    20.000348    19.894901    20.951026    8336.5164    527.12351    1560.0977     763.2204   -338.69567   -3.2980668   -128.50832    -4818.367 
 4600000     80.15278   -5088.8427   -4934.2613   -5088.8427            0     907.6196    19.965629    19.944679    20.944373    8340.2182    1437.5188    514.98857    770.35143    312.41754    492.19251   -2.3078066   -4823.8643 
 4601000    75.777379    -5092.095   -4945.9519    -5092.095            0    831.48375    20.045623    19.886258    20.856802    8314.1973   -256.63991    1790.5356    960.55553    198.97769    16.452179    430.06931   -4845.1312 
 4602000    80.961629   -5089.1483    -4933.007   -5089.1483            0    1702.9947     19.95175    19.913802     20.90041    8304.0503    2175.2427    1179.3951    1754.3464    54.468845    -572.0605    119.54222    -4726.764 
 4603000    80.552537    -5083.869   -4928.5167    -5083.869            0    116.08396    20.046201     19.97782    20.845868    8348.3404   -814.52473    967.44871     195.3279   -81.184249     46.73612    98.710833   -4914.3832 
 4604000    82.637828   -5086.9676   -4927.5936   -5086.9676            0    931.11569    19.949745    19.939019    20.881085    8306.0439    1267.7781    1189.0845    336.48444   -636.75875   -96.057404    160.88308   -4814.8028 
 4605000    84.714303   -5082.3411   -4918.9625   -5082.3411            0    2024.5489    19.920848    19.923155    20.928508    8306.2346    2398.5733    1254.6088    2420.4645   -164.41569    392.74163   -390.38554   -4673.7128 
 4606000    79.609573   -5096.7097    -4943.176   -5096.7097            0    167.00586    20.037206    19.986398     20.78316    8323.0648    747.70088   -490.84264    244.15934     274.7361   -799.25415    121.75004   -4922.9043 
 4607000    81.892645   -5089.8426   -4931.9058   -5089.8426            0    871.61761     20.06743    20.004198    20.757848    8332.8819    882.35981    220.81128    1511.6817    449.98645     33.18871    572.27648   -4825.9811 
 4608000    83.290951   -5090.1347   -4929.5011   -5090.1347            0    857.35403    20.010584    19.990933    20.836011    8335.0342    1239.9166    509.38493    822.76055   -89.491647    -216.4269   -314.73457    -4825.283 
 4609000    78.990437   -5088.9817    -4936.642   -5088.9817            0    512.11175    20.010399    19.994777    20.829038    8333.7704    351.10435    644.61169     540.6192   -343.71519    289.15369   -655.53668   -4874.4002 
 4610000    83.550798   -5088.1801   -4927.0454   -5088.1801            0    1277.3049    19.993463     19.98565    20.838135    8326.5508    924.72495    1275.0461    1632.1437   -15.115029    137.12518    878.95361   -4771.9369 
 4611000    83.838588   -5086.3685   -4924.6788   -5086.3685            0    535.49912    20.024713    19.964586    20.838603    8330.9633   -443.76495    576.97179    1473.2905   -559.34762     304.1836    43.151405   -4859.6164 
 4612000    82.003923   -5087.7612   -4929.6097   -5087.7612            0    1322.9871      20.0547    19.910601    20.758385    8288.8464    560.46868     1167.573    2240.9196   -6.8541216    832.29535   -97.127161   -4769.6813 
 4613000    78.904734   -5094.8964    -4942.722   -5094.8964            0     1496.422    19.973879    19.925082    20.830855    8290.2882    2033.2142     1431.979    1024.0728    286.81794    1283.2661   -609.01082   -4761.7965 
 4614000    83.362707   -5088.5142   -4927.7422   -5088.5142            0    1662.9719    20.017036    19.973788    20.813743    8321.6684    1909.6403       834.99    2244.2853    154.58417    120.35899   -948.44679   -4725.9189 
 4615000    77.198743   -5082.4284   -4933.5442   -5082.4284            0   -1284.3786    20.119005    19.958108     20.90678    8394.8515   -2282.8298   -223.11012   -1347.1957   -198.01963    374.48683   -389.82921    -5090.791 
 4616000     79.94983   -5100.3156   -4946.1256   -5100.3156            0    757.85183     20.02558    19.917784    20.815292    8302.4953    382.48734    979.45851    911.60965   -70.604319    687.07665      727.148   -4854.3624 
 4617000    77.239011   -5093.1404   -4944.1784   -5093.1404            0    958.45515    19.944448    20.007826    20.856649    8322.7429    1867.5498    691.61364      316.202    69.260958   -530.25662   -328.50486   -4827.8424 
 4618000    79.695029   -5094.6632   -4940.9646   -5094.6632            0    918.31173    19.986353    19.958114    20.768012    8284.1502    1517.7658    36.302417    1200.8669   -279.13003    409.30425   -729.26168    -4830.018 
 4619000    76.023285   -5087.4034   -4940.7862   -5087.4034            0    1946.0814     19.99081    19.933515    20.795611    8286.7833    1170.0886    2664.8687    2003.2868    166.58037   -124.19811   -0.8011208    -4705.594 
 4620000    81.761471   -5091.9736   -4934.2897   -5091.9736            0    1548.6854    20.098735    19.888933    20.753961    8296.2381    1131.1682    1622.0039    1892.8843    127.77932    2.0643509    729.76809   -4746.9109 
 4621000    79.909099   -5100.3481   -4946.2367   -5100.3481            0    549.85025    19.993095    19.990385    20.906789    8355.8093    434.70604    1036.5139    178.33081    -93.54077    104.05408    908.98481   -4879.2314 
 4622000    79.629808   -5079.0007   -4925.4279   -5079.0007            0    1452.4551    20.035486    19.847569     20.95209     8331.718    1044.2072    2174.0234    1139.1346   -38.751044   -834.40917    423.28205   -4748.9407 
 4623000     78.73419    -5084.728   -4932.8825    -5084.728            0    736.73023    19.938731    19.971205    20.935865    8336.6717    1378.1869    -157.7338    989.73759   -82.737043   -124.80614    793.24602   -4843.3095 
 4624000    82.130085    -5091.448   -4933.0533    -5091.448            0    172.44015    20.041203    20.055687    20.836584    8375.0586   -445.82011    214.28244    748.85812   -248.60187   -892.84511    117.43491   -4911.9911 
 4625000    83.886958   -5088.6584   -4926.8753   -5088.6584            0    876.25216    19.961351    19.950001    20.886385    8317.5637    655.78344    1389.4249    583.54811   -450.65311    64.670046    303.76862   -4820.5832 
 4626000    79.840435   -5100.2835   -4946.3045   -5100.2835            0   -121.29468    20.078028    19.850678    20.963789    8355.3797    110.12294    506.69201     -980.699   -97.012364    882.92938    371.05745   -4961.0848 
 4627000    84.115452   -5099.9876   -4937.7638   -5099.9876            0    1664.7709    20.040629     19.88517     20.81516    8295.0765      1334.88    1961.8345    1697.5983    -46.25233    88.855421   -182.06154   -4736.3679 
 4628000    78.925195     -5092.71   -4940.4962     -5092.71            0    1354.4067    19.908865     19.91313    21.056437    8347.7782    2272.0915    1791.3489  -0.22048866   -285.96485    23.812515   -396.69419   -4775.6056 
 4629000    84.051941   -5083.8612     -4921.76   -5083.8612            0    1087.8472    20.010466    20.005725    20.839596    8342.5877   -93.666628    1869.2392     1487.969    -537.5595    885.56696    63.886423   -4789.4037 
 4630000    79.323665   -5102.3246   -4949.3422   -5102.3246            0    351.58087    20.059639    19.924844    20.918094    8360.6519    245.93808    318.37045    490.43407    43.250206    182.77814    48.352578   -4906.4734 
 4631000    78.003754   -5097.3326   -4946.8958   -5097.3326            0      833.147    19.960962    19.974837    20.947646    8352.1819    1255.3652    495.70113    748.37464   -7.8689977    37.508956    186.68475   -4845.4119 
 4632000    82.031206   -5082.1411    -4923.937   -5082.1411            0    1300.3329     19.94758      19.9567    20.907168    8322.8901    1117.7849    2128.2509    654.96298     330.0007    605.67763    544.13326   -4766.1015 
 4633000     83.17041   -5085.1003   -4924.6992   -5085.1003            0    1077.7204    20.043449    19.970887    20.820688    8334.2184    1000.1437    1055.8304    1177.1872   -134.29657    8.9915791   -745.53856   -4793.7066 
 4634000    77.549818    -5090.049   -4940.4876    -5090.049            0    504.94502    19.974153    20.052521    20.841686    8347.7648    454.71708    85.102059    975.01591   -391.12477    227.21209   -272.61985   -4879.0138 
 4635000    82.709702   -5096.7638   -4937.2512   -5096.7638            0    460.65857     20.11161     19.99359      20.7252    8333.6709    385.59487     -888.235    1884.6158   -216.53563    232.30475    160.51696   -4881.2636 
 4636000    79.219058   -5083.1533   -4930.3726   -5083.1533            0    727.73323    20.001752    19.877155    20.932273    8322.2099    1039.3479    1287.1801    -143.3283    243.76847   -71.587655   -20.773021    -4842.047 
 4637000      80.3125   -5092.9706   -4938.0812   -5092.9706            0     1223.648    20.052451    19.902089    20.774831    8290.9372    825.96366    1578.7885    1266.1918    -378.3905     7.074208    635.30784    -4790.124 
 4638000    80.316931    -5094.857    -4939.959    -5094.857            0    259.43032    20.074731     19.93771    20.811994    8329.8793   -152.62534    892.81729    38.099019   -424.99937    451.33982   -42.118605   -4908.4427 
 4639000    78.033346    -5099.222   -4948.7282    -5099.222            0     1195.615    19.984059    19.953501    20.754526    8275.9078    1371.4454    1363.7551    851.64442   -190.09092     650.8216    353.29483   -4804.4227 
 4640000     83.39716   -5091.9497   -4931.1113   -5091.9497            0   -216.33675    20.048909    20.041942    20.770651    8346.0435    -480.0195   -946.44509    777.45433   -56.022413    338.45238   -38.386263   -4957.4435 
 4641000    82.602584   -5095.1311   -4935.8251   -5095.1311            0    99.101303    20.010987    20.092812    20.736919    8337.8382    301.41392   -687.08287    682.97286   -411.51621    1015.7981   -711.61576   -4923.7745 
 4642000    81.608645   -5093.6389   -4936.2498   -5093.6389            0    521.23049    20.015928    19.980789    20.865765    8344.9294    753.66344    152.90424    657.12379   -118.62188    767.19856    -226.9466   -4872.8148 
 4643000    82.521035   -5099.5463   -4940.3976   -5099.5463            0    860.30573    20.058902    19.945167    20.797354    8320.5673    1148.4157    647.45211    785.04939   -163.74243   -109.47747       162.87   -4836.0021 
 4644000    82.091061   -5092.6398   -4934.3203   -5092.6398            0    927.86273    19.900274    20.044146    20.846352    8315.2765    734.28351    839.75069     1209.554    -285.9608    658.56065   -17.091338   -4821.7986 
 4645000    80.946284   -5093.1803   -4937.0686   -5093.1803            0   -241.28606    19.999599    19.979786    20.959326     8375.089    35.865257   -716.47399   -43.249429    -85.72576     1053.355    813.23981   -4966.5398 
 4646000    81.468169   -5100.4536   -4943.3354   -5100.4536            0    1223.9926    20.042252    19.942636    20.856548    8336.2649    1624.7799    1257.2861    789.91175   -63.069631    271.48908    416.14532   -4794.5274 
 4647000    75.935508   -5091.8068   -4945.3588   -5091.8068            0    1491.4614    20.043235    19.870136    20.891717    8320.3729    1450.7654    1717.5378    1306.0811   -36.917669   -810.65763   -181.48736   -4764.3787 
 4648000    80.325531   -5094.4983   -4939.5838   -5094.4983            0    932.40652    20.039704    19.925661    20.711891    8270.3483     271.5783    1068.7495    1456.8918   -28.467342     827.3631   -964.35406    -4827.122 
 4649000    82.917229   -5086.7265   -4926.8137   -5086.7265            0    852.81918    20.089592    19.953066    20.785196     8331.724    778.81278    675.22693    1104.4178   -7.6907069    1892.6601    595.33375   -4823.1879 
 4650000    81.468061   -5094.4511    -4937.333   -5094.4511            0   -510.34875    20.096907    19.898551    20.884464    8351.6834   -619.22885   -22.786354   -889.03104    -144.9932    410.40116   -296.01164   -4999.4939 
 4651000    84.415395   -5084.8867   -4922.0845   -5084.8867            0    413.34031    20.046784    19.931391    20.932307    8363.7186    563.12814    185.29203    491.60075    269.92669    473.04806    -597.8793   -4871.6668 
 4652000    81.950791   -5087.8047   -4929.7557   -5087.8047            0    617.01494    19.987773     20.04786    20.741488    8311.3646    586.32477    660.31134    604.40871   -320.59395   -108.98108    116.71742   -4854.9657 
 4653000    81.078998    -5091.502   -4935.1344    -5091.502            0    873.31713    20.054786    19.852639    20.792737    8278.4294    469.66852    1056.5861    1093.6968    51.796082    76.167341   -710.28621   -4829.6967 
 4654000    79.947073   -5088.9112   -4934.7266   -5088.9112            0    1476.3846    20.025247    20.045648    20.609194     8272.923    1336.3123    699.27444    2393.5672    119.29446   -1225.8484    303.12562   -4756.5977 
 4655000    83.845502   -5097.8039   -4936.1008   -5097.8039            0    566.33932    20.094918    19.903848     20.82669    8329.9718    1125.0163    50.542995    523.45862   -82.998439   -49.213078   -255.39874   -4867.2996 
 4656000    78.253396   -5095.8358   -4944.9176   -5095.8358            0    163.27566     20.08526    20.011592     20.78223    8353.1685   -321.18636   -108.11554    919.12888   -120.74861    12.050107    457.12868   -4925.0269 
 4657000    81.969476    -5091.291   -4933.2059    -5091.291            0    947.07434    20.034802    19.968775    20.840133    8337.5216    1771.3731   -305.93654    1375.7865   -325.64364    915.49103    -340.4169   -4818.0472 
 4658000    77.505519   -5095.5537   -4946.0778   -5095.5537            0    424.83416    20.038376    20.023992    20.771049    8334.3481   -79.737934    157.17826    1197.0622   -78.171689    1011.9665   -50.966635   -4894.4401 
 4659000    77.727928   -5090.6939    -4940.789   -5090.6939            0    1330.5955    19.954629    20.057678    20.758691    8308.5316    1865.0131    1074.0729    1052.7006   -43.139598   -139.74007   -96.180548   -4779.5589 
 4660000    83.591658   -5095.0714   -4933.8579   -5095.0714            0    1414.2972    19.960049    19.958534     20.88255    8319.0509    2764.7105    456.59363    1021.5873   -228.62308     26.89238    67.377799   -4762.2685 
 4661000    80.835252   -5097.7948   -4941.8972   -5097.7948            0    816.13849    20.011047    19.890679    20.883829    8312.4594    897.87648    752.22221    798.31678   -327.32515    365.30909   -184.91304   -4842.9578 
 4662000    78.492977   -5085.7451   -4934.3648   -5085.7451            0    1003.3741    20.038236    19.986195    20.781822    8322.8721    251.70536    1441.1479     1317.269    128.68463    763.84907    144.84737   -4812.5747 
 4663000    83.250438   -5095.3435    -4934.788   -5095.3435            0    900.03236    20.025918    19.905885    20.890372    8327.6049    644.90776    939.24367    1115.9457   -115.72632    115.86942    52.210962   -4825.4795 
 4664000    81.155556   -5097.5217   -4941.0064   -5097.5217            0    1684.3587    19.900497    19.942675    20.893347    8291.9246    1777.1325    1371.8504    1904.0933     -382.204    939.04656    130.49561   -4737.3182 
 4665000    80.888173   -5091.8686    -4935.869   -5091.8686            0    1333.6536     19.91196     19.97081    20.927146    8321.8463    2182.6028    1213.4637    604.89419   -715.53995    263.64544     663.9002   -4774.0093 
 4666000    79.350365   -5081.9362   -4928.9024   -5081.9362            0      699.634    19.972054    19.973486    20.876247    8327.7758    1702.7119   -592.71091    988.90104   -234.94987    877.69914   -418.39716   -4843.9304 
 4667000    83.658152   -5095.0193   -4933.6775   -5095.0193            0    778.27622    19.969655    19.968503    20.830275    8306.3664    2196.0457   -132.75355    271.53648   -151.89171    220.84683    37.538222   -4839.3973 
 4668000    87.226569   -5091.5271   -4923.3033   -5091.5271            0    513.61016    19.936252    20.051444    20.895962    8353.1741    1950.5336   -748.63101    338.92787   -131.89281   -380.31727   -457.25209    -4860.734 
 4669000    84.189658   -5085.5104   -4923.1435   -5085.5104            0    1373.3625    19.910706     20.03124    20.865764    8322.0207    1014.4555    1260.2202    1845.4117   -233.29765   -386.05672   -545.91027   -4756.4611 
 4670000     82.67153   -5091.0127   -4931.5737   -5091.0127            0    1550.7925    20.026165    20.001319    20.826527    8342.0599    2376.0537    882.39644    1393.9275   -72.793337    144.51925    227.61387   -4742.9037 
 4671000    83.030367   -5087.7541    -4927.623   -5087.7541            0    1587.4924    19.944552    20.004886    20.841232     8315.412    541.51659    2530.5342    1690.4264   -595.41156   -483.33714    534.63187   -4735.1051 
 4672000    78.375136   -5091.8473   -4940.6943   -5091.8473            0    1503.2091    20.026165    19.881298    20.777002    8272.2833      622.861    2223.2384    1663.5278    445.16465    520.02906   -269.17977    -4759.343 
 4673000    78.333728   -5094.4469   -4943.3737   -5094.4469            0    119.11105     20.00906     20.10376    20.746562    8345.4572    480.03355   -615.46823    492.76784   -459.69444    380.21851    1006.0386   -4928.8767 
 4674000    87.037366   -5101.4432   -4933.5843   -5101.4432            0    505.91975    19.950522    20.101294     20.74778    8320.5093    189.95475   -243.79025    1571.5947   -13.100682   -214.60876    302.70683   -4872.1929 
 4675000    81.909872   -5093.3984   -4935.4283   -5093.3984            0    489.77219    19.962919    19.988618    20.808619    8303.2876    71.264057    791.52827    606.52424    55.051474    217.41656    621.44578   -4876.1194 
 4676000    78.528666   -5095.8393   -4944.3902   -5095.8393            0    736.27351    20.052176    19.970175    20.729205     8300.916    468.15645    630.76122    1109.9029    286.28696    452.22157   -383.10513   -4855.2566 
 4677000    79.476935   -5086.9056   -4933.6277   -5086.9056            0    1444.9711    20.137809    19.885132    20.853854    8350.7797    474.99762    2493.0492    1366.8665    50.102361   -16.772568   -543.66787   -4757.6482 
 4678000    78.742749   -5083.9081   -4932.0461   -5083.9081            0    1690.2686    19.927477    19.941317    20.898833    8304.7811    1754.4236    2142.0254    1174.3567   -463.00241   -1104.3431     45.05334   -4727.3263 
 4679000     81.15197   -5081.4985   -4924.9901   -5081.4985            0    1640.0159    20.007485    19.937972    20.745719    8275.6474    321.40561    2487.8492    2110.7929    201.55442   -927.10702    260.49945   -4727.0536 
 4680000    83.122022   -5089.5219   -4929.2141   -5089.5219            0    471.50517     20.14435     19.97187    20.772195    8357.0765   -89.423069    956.10825    547.83034   -131.94292     454.5598    160.52822   -4871.7473 
 4681000    84.401363   -5101.5151     -4938.74   -5101.5151            0    1142.0148    19.955886        19.89    20.967309    8322.3981    1735.1454    245.82558    1445.0736   -117.24969   -105.06228    386.19244   -4800.1295 
 4682000    79.711059   -5091.7922   -4938.0627   -5091.7922            0    655.48588    19.953134    19.947647     20.94813    8337.7345    1406.6585    586.47055   -26.671459    122.23797   -250.56447   -633.75354   -4858.3574 
 4683000    79.097491   -5096.2545   -4943.7083   -5096.2545            0    257.66147     19.92577    20.024614     20.86787    8326.4023    835.54553     200.0178   -262.57892   -314.11989    885.26298   -388.84757     -4912.42 
 4684000    78.307894   -5093.3415   -4942.3181   -5093.3415            0    878.71682    19.920467    19.914287    21.027443    8341.6264    848.62714    1313.3348     474.1885   -318.52721    801.76862   -93.577871   -4835.4187 
 4685000    84.930991   -5091.6768   -4927.8802   -5091.6768            0    410.58716    20.024467    20.026597    20.870412     8369.493   -631.82721    1013.4821    850.10663   -249.59797    298.02891   -135.48566   -4877.7637 
 4686000    83.664828   -5090.8478   -4929.4931   -5090.8478            0    2039.4533    19.987463    19.940514    20.931103    8342.3065    1889.5497    1977.8268    2250.9834   -119.75796   -273.82118    79.058584   -4681.3651 
 4687000     79.98878   -5093.8637   -4939.5986   -5093.8637            0    1029.2793    19.932077    19.928901    20.921142     8310.388    1165.9333    1314.5285    607.37603   -173.57498    730.20952   -108.71951   -4814.8515 
 4688000    82.266534    -5090.279   -4931.6211    -5090.279            0    1456.1916    19.965052    19.929825    20.930031    8328.0593     2764.775    389.51435    1214.2855   -353.37937    909.53427    727.22173   -4754.7576 
 4689000     78.21156   -5094.9936    -4944.156   -5094.9936            0    1008.5962    19.975283    19.964631    20.898754    8334.4054    1117.5027    994.31481      913.971   -203.45618   -92.587654   -197.88607   -4821.5624 
 4690000    81.228222   -5078.4541   -4921.7986   -5078.4541            0    2016.1593    19.922501    19.987405    20.828066    8293.7171    1086.0464    2573.3114    2389.1201   -498.41428    572.35823    867.01397   -4677.9333 
 4691000    80.144847   -5088.1963   -4933.6303   -5088.1963            0    1055.5982    20.091234    19.935089    20.801361    8331.3721    562.38954    2078.6898    525.71534    136.96667   -667.10982    5.5691737   -4805.3703 
 4692000    83.818712   -5092.1342   -4930.4828   -5092.1342            0    484.44297    20.102675     19.79531    20.961197     8341.271   -767.27076    2831.2767   -610.67707   -364.80143     386.3878   -105.60696   -4871.5508 
 4693000    80.288594   -5087.3428   -4932.4995   -5087.3428            0    862.03689    20.018215    19.946669    20.926828    8356.0135    874.83986    492.12009    1219.1507   -403.16789    128.21148    -169.3805   -4827.4484 
 4694000    85.296342    -5091.134   -4926.6328    -5091.134            0    596.62066    19.989546    19.868925     21.00684    8343.3033    342.16065    1229.2586    218.44276    20.709975    -313.6536   -5.9740705   -4854.0369 
 4695000    80.257974   -5088.3281   -4933.5439   -5088.3281            0    1726.5743     20.03628    19.886787    20.954754    8349.5734    1964.9253    1917.2665    1297.5311    35.367853   -3.1998471    785.33372    -4723.299 
 4696000    81.037782   -5096.5299   -4940.2417   -5096.5299            0    1292.1142    19.911275    19.938056    20.905474    8299.3083    1914.1055    1683.1796    279.05761    -138.6086    91.095066    269.41023   -4783.8482 
 4697000    81.641478   -5090.9318   -4933.4793   -5090.9318            0    768.11722    19.911461    19.966122    20.904136    8310.5364    1251.3193    386.44211    666.59021    152.59376    428.41047    6.2898441    -4840.383 
 4698000    81.847899   -5092.9331   -4935.0826   -5092.9331            0    378.02537     20.05163    19.962515    20.896324    8364.4007    -194.9397    342.90745    986.10835   -11.590851    1054.8125   -242.07827   -4888.9687 
 4699000    83.055604   -5087.3344   -4927.1547   -5087.3344            0   -625.42286    19.930284    20.079555    20.894323    8361.7252   -260.72349   -1073.4185   -542.12659   -66.573399    316.64865   -414.77882   -5003.4232 
 4700000    76.358998   -5085.6509   -4938.3862   -5085.6509            0    1584.7313    20.018522    19.901079    20.776527    8277.1647    862.97484     1582.666    2308.5532   -291.07155    116.67483   -231.28593    -4747.087 
 4701000    77.661315   -5088.9159   -4939.1395   -5088.9159            0    1289.4727    20.016439    19.925595    20.889507    8331.5598    412.97408    2533.8964    921.54765    130.47736    519.36982    249.30474   -4782.4592 
 4702000    82.816618   -5094.1918    -4934.473   -5094.1918            0    187.87772    20.033617    19.965265    20.922814    8368.6335   -193.12266    640.03261    116.72322     5.036005   -196.01728   -69.274105   -4911.5429 
 4703000    79.923476   -5096.7745   -4942.6354   -5096.7745            0    773.05206    20.069743      19.9548    20.772676    8319.2013   -31.775414    1277.1212    1073.8104    18.348201    -126.7621   -564.23913   -4848.8433 
 4704000    81.322593    -5098.903   -4942.0656    -5098.903            0    621.97819    19.989785    20.047856    20.756249     8318.115   -424.91441    1102.0637    1188.7853    173.64339    35.502965    428.97851   -4866.6127 
 4705000    78.586701   -5099.4334   -4947.8724   -5099.4334            0    1613.9438    20.006682    19.983076    20.791562    8312.3635     1911.184    1247.2955    1683.3519    142.53015    696.01062   -427.27351   -4752.2183 
 4706000    79.532216   -5097.3245   -4943.9399   -5097.3245            0    343.16864    19.990176    20.020052    20.773537    8313.6603   -138.16982    560.51507    607.16066   -199.06205    420.68885    270.59228    -4902.332 
 4707000    78.758936   -5089.2181   -4937.3249   -5089.2181            0    493.63539    19.988716    19.991003    20.895691    8349.8028     773.5471    747.59258   -40.233509    207.12114    108.65122    -335.6945   -4877.2133 
 4708000    82.410153   -5091.9257   -4932.9908   -5091.9257            0    1326.3838    19.926429    20.024942    20.832385    8312.6545    1259.6537    1675.9388    1043.5588    -290.3753    -111.3377     765.7973   -4772.1912 
 4709000    81.197621    -5092.118   -4935.5216    -5092.118            0    1043.3912    19.950605    19.964895    20.940264    8340.7524     964.3328    1623.3607    542.48001   -3.8052754    771.75266    455.99263   -4808.6021 
 4710000    83.250805   -5084.6211   -4924.0649   -5084.6211            0     966.5202    20.001733    19.897804     20.91342    8323.3436    1639.5239    1222.1826    37.854076    6.5708378   -251.01704    242.21677   -4806.7415 
 4711000    83.900226   -5095.4478   -4933.6391   -5095.4478            0    862.89671    20.023095    19.891219     20.93487     8338.019    146.53895    2103.2983    338.85282    -487.3374   -41.886358     477.5012   -4828.7096 
 4712000    82.244634   -5094.0485   -4935.4328   -5094.0485            0    525.18337     20.06744    20.055123      20.7222    8339.7523    264.52083     115.0153     1196.014   -398.51977    -289.8094    635.34977   -4871.5565 
 4713000    81.236207   -5083.6803   -4927.0094   -5083.6803            0    718.42054    20.082122    19.905552    20.869429    8342.4647    249.14616    1107.8366    798.27888    472.90214    446.07386   -474.53998   -4839.6019 
 4714000    83.003936   -5093.2542   -4933.1741   -5093.2542            0    748.23495    20.062605    19.963864    20.812609    8336.0144   -408.81884    1316.7682    1336.7555   -129.50666    72.575165   -60.555392   -4842.2096 
 4715000     77.23893   -5098.2686   -4949.3068   -5098.2686            0     1394.221    20.079195    19.854304    20.851927    8312.7969    830.85624    2102.5601    1249.2466   -260.31845    183.21815    156.84626   -4780.2804 
 4716000    81.500154   -5098.5356   -4941.3557   -5098.5356            0    1163.4761    19.922856    19.981791    20.861919    8305.0121    1564.6586    832.06197    1093.7079   -160.34434    147.71837    209.32989   -4800.4353 
 4717000    79.016488   -5099.4418   -4947.0519   -5099.4418            0    1136.0536    19.899614    19.942434     20.88285    8287.2909    730.42158    2097.2362    580.50318   -211.00852    -311.6972   -15.245254   -4809.7466 
 4718000    79.877736   -5081.3201   -4927.2691   -5081.3201            0    1146.0295    20.075178     19.93889    20.818613    8333.2068    1133.7802    1841.2041    463.10426   -51.333198    53.622903    59.379866   -4787.9907 
 4719000    81.864834   -5090.7625   -4932.8793   -5090.7625            0    917.76705    20.007289    19.943086    20.902482    8340.2384    769.42833    1014.2719    969.60097    471.02329   -103.80169    254.97327   -4821.2478 
 4720000    77.914458   -5094.3596    -4944.095   -5094.3596            0    191.40373    20.041353    20.037162    20.869224    8380.4929    903.59386   -634.48147    305.09881   -84.815169    90.888174   -581.21317   -4920.7015 
 4721000    80.274049   -5092.1149   -4937.2997   -5092.1149            0    1261.6117    20.052161    19.940154    20.765196    8302.8221    579.68974    1658.4976    1546.6476   -64.501392    196.66769   -303.40148   -4784.5334 
 4722000    80.053555   -5097.3259   -4942.9359   -5097.3259            0    815.39836    19.967456    20.033231    20.883168    8353.5315    608.10687    466.21758    1371.8706   -212.75963   -304.20586      -104.01   -4843.5978 
 4723000    77.647294   -5088.3365   -4938.5872   -5088.3365            0    1918.2269    19.946224    19.922048    20.913807    8310.5118    2445.9795    1495.7011    1812.9999    -402.8241   -294.72142    443.29007   -4706.0975 
 4724000    79.481238   -5088.1734   -4934.8871   -5088.1734            0    602.45086    20.000376    19.967085      20.8997    8346.2785    815.18656    20.024437     972.1416    101.58401   -128.27135   -209.25146   -4861.5556 
 4725000    79.724045   -5094.6138   -4940.8593   -5094.6138            0    1502.5557    20.026819    19.924809    20.879704    8331.6393    2237.3551    787.05082    1483.2613   -42.528972   -433.17578     -482.639   -4758.2861 
 4726000    81.665186   -5091.2444   -4933.7463   -5091.2444            0    1265.6069    19.923678    20.017973    20.820832    8304.0067    863.33645    1800.6134    1132.8708   -183.94422    -477.6694    625.81059   -4780.4744 
 4727000    86.463534   -5082.4753   -4915.7231   -5082.4753            0    1204.1921    19.964553    19.977689    20.835679    8310.2192    1505.9129    812.38556    1294.2779   -260.62482   -641.77126    385.76128   -4769.7798 
 4728000    82.502478   -5087.7097   -4928.5967   -5087.7097            0     917.2495    19.968205    19.906543     20.93893    8323.1811    1109.7796    1292.1997    349.76923   -466.26804    608.07979    165.95717   -4817.2563 
 4729000     84.60624   -5092.8361   -4929.6659   -5092.8361            0    2354.8444    19.899165    19.900209    20.882097    8269.2591    2964.8862    2524.3109     1575.336   -126.80278    249.44952   -404.83221   -4645.6748 
 4730000    82.878686   -5084.8304   -4924.9919   -5084.8304            0    488.87285    20.070056    19.998776    20.807485    8351.6367    212.35285    130.02939    1124.2363   -116.70989   -464.94283   -447.22317   -4865.4471 
 4731000    84.784208   -5090.4703   -4926.9568   -5090.4703            0    989.71082    20.063936     19.88827    20.802864    8301.1123    1011.4951    590.97666    1366.6606   -67.520545    70.282004   -219.49693   -4807.1393 
 4732000    82.893059   -5092.3833   -4932.5171   -5092.3833            0    1101.5949    19.992755    19.976501    20.792057    8304.0419    472.81516    1841.4177    990.55202    -240.2485    1053.6303    140.36328   -4799.1074 
 4733000    77.396748   -5089.2655   -4939.9994   -5089.2655            0    429.59741    19.975156    19.982462     20.83374    8315.8454    142.95372    308.60345    837.23507    132.69556    1022.1312   -438.62083   -4887.8986 
 4734000    80.890071   -5086.4739   -4930.4706   -5086.4739            0    320.20404     20.07112    20.114803    20.751812    8378.0591   -195.57926   -257.64113    1413.8325   -401.53675    222.56125     119.3961   -4891.3463 
 4735000    76.970748   -5092.4032   -4943.9587   -5092.4032            0    758.11681    19.984662    20.019596    20.895492      8359.97    908.87955    738.97679    626.49408   -189.74903   -1428.5525   -1024.4558   -4851.5279 
 4736000    78.361869   -5092.5616   -4941.4342   -5092.5616            0   -71.352894    19.935278    19.957949    20.957214    8338.1893   -1002.3811    1202.1678    -413.8454   -165.89024    297.24874    329.31001    -4950.111 
 4737000    81.505184   -5093.7939   -4936.6043   -5093.7939            0    1257.4792    19.935885    19.869484    20.994567    8316.2784    2048.4073    966.18797    757.84244   -187.44529    1277.9933   -263.90568   -4784.0917 
 4738000    83.198538   -5092.4718   -4932.0164   -5092.4718            0    1099.5397    20.000961    19.944437    20.909918    8341.1319    1452.1353    1020.1127    826.37097   -356.10671    97.052519    247.58874   -4798.2609 
 4739000    80.238641   -5090.8052   -4936.0582   -5090.8052            0    1884.5742    19.957841    19.870891    20.931276    8300.9272    1817.3635    1958.6713    1877.6878    36.781433    588.22611   -747.71558   -4707.9107 
 4740000    83.371473   -5090.7029    -4929.914   -5090.7029            0    1688.9231    20.051571    19.975095    20.710977    8295.4096    1569.4594    1144.9019    2352.4081    295.44687   -667.06209   -652.56543    -4725.588 
 4741000    78.933198   -5095.5076   -4943.2783   -5095.5076            0    1628.5589    20.055824     19.87133    20.826044    8299.9261    1958.0833     709.0035      2218.59   -50.681967    510.04509    447.90913   -4746.1479 
 4742000    81.311372   -5092.8229   -4936.0071   -5092.8229            0    1620.3938    19.946444    19.998434    20.800002    8297.0717    2619.1203    639.43017     1602.631   -365.94391   -108.11613   -132.94649   -4739.9325 
 4743000    80.859159   -5085.6039   -4929.6602   -5085.6039            0     1384.101    20.073478     20.08416     20.64932    8324.9581    33.810622    1856.7651    2261.7273    97.817862    468.67233   -317.21637   -4761.6152 
 4744000     79.41496   -5084.4656   -4931.3072   -5084.4656            0    729.26141    20.052557    20.027722    20.820711     8361.744    621.51652    742.05122     824.2165    6.3726511   -212.33268    544.54575   -4842.3756 
 4745000    85.575118    -5085.739   -4920.7002    -5085.739            0    1459.7932    19.900481    19.986343    20.920607    8320.9165    1253.8059    1794.0617    1331.5119    279.74409    166.90733   -603.02069   -4743.5513 
 4746000    84.200756   -5092.5227   -4930.1345   -5092.5227            0    494.40401    19.984167    20.019805    20.858526     8345.061    1333.9845    242.75143   -93.523958    244.98213   -113.60175   -310.33045   -4869.9635 
 4747000    80.214148   -5088.6018   -4933.9021   -5088.6018            0    1091.2301    20.054759    19.938561    20.752329    8298.0894    1403.5794     281.6769     1588.434    -54.57893     313.8563    603.91753   -4801.8424 
 4748000    86.287738   -5093.4834   -4927.0703   -5093.4834            0    402.13038    20.022944    19.969221     20.84926    8336.4218    422.59931    -147.5518    931.34363     268.8848    131.69259    664.57768     -4878.18 
 4749000    80.276906    -5098.154   -4943.3333    -5098.154            0    1110.8768    19.987621    19.844858    20.974991     8319.762    528.15642     2065.854    738.61983   -237.72424    172.33704   -247.02236   -4808.5448 
 4750000    84.848322   -5085.6206   -4921.9835   -5085.6206            0    615.52855     19.99336    19.966979    20.912837    8348.5509    57.453768    1534.9364    254.19547    91.294077   -236.69324   -111.40957   -4847.0398 
Loop time of 365.282 on 64 procs for 250000 steps with 972 atoms

Performance: 118.265 ns/day, 0.203 hours/ns, 684.402 timesteps/s
99.0% CPU use with 64 MPI tasks x 1 OpenMP threads

MPI task timing breakdown:
Section |  min time  |  avg time  |  max time  |%varavg| %total
---------------------------------------------------------------
Pair    | 17.966     | 27.28      | 37.309     |  88.7 |  7.47
Bond    | 0.25848    | 0.27624    | 0.28964    |   1.3 |  0.08
Kspace  | 147.63     | 157.23     | 166.54     |  36.9 | 43.04
Neigh   | 0.24206    | 0.24903    | 0.25266    |   0.5 |  0.07
Comm    | 82.18      | 83.498     | 84.913     |   9.1 | 22.86
Output  | 0.53979    | 0.54118    | 0.54281    |   0.1 |  0.15
Modify  | 86.18      | 87.87      | 91.533     |  13.1 | 24.06
Other   |            | 8.337      |            |       |  2.28

Nlocal:        15.1875 ave          20 max          11 min
Histogram: 2 4 12 4 17 7 6 8 3 1
Nghost:        2224.22 ave        2249 max        2198 min
Histogram: 2 2 6 10 11 12 8 7 4 2
Neighs:        4722.86 ave        6801 max        3167 min
Histogram: 2 8 10 11 10 7 9 4 2 1

Total # of neighbors = 302263
Ave neighs/atom = 310.97016
Ave special neighs/atom = 2.0000000
Neighbor list builds = 668
Dangerous builds = 0

unfix		3
unfix		2
unfix		1

write_data	data.final.${pid}
write_data	data.final.1
System init for write_data ...
PPPM initialization ...
  extracting TIP4P info from pair style
  using 12-bit tables for long-range coulomb (../kspace.cpp:340)
  G vector (1/distance) = 0.37230827
  grid = 24 24 25
  stencil order = 5
  estimated absolute RMS force accuracy = 0.0034192751
  estimated relative force accuracy = 1.0297045e-05
  using double precision FFTW3
  3d grid and FFT values/proc = 2366 288
Last active /omp style is kspace_style pppm/tip4p/omp
WARNING: Not all mixed pair coeffs generated from mixing. Use write_data with 'pair ij' option to store all pair coeffs. (../write_data.cpp:312)

write_restart   restart.lmp.${pid}
write_restart   restart.lmp.1
System init for write_restart ...
PPPM initialization ...
  extracting TIP4P info from pair style
  using 12-bit tables for long-range coulomb (../kspace.cpp:340)
  G vector (1/distance) = 0.37230827
  grid = 24 24 25
  stencil order = 5
  estimated absolute RMS force accuracy = 0.0034192751
  estimated relative force accuracy = 1.0297045e-05
  using double precision FFTW3
  3d grid and FFT values/proc = 2366 288
Last active /omp style is kspace_style pppm/tip4p/omp
Total wall time: 0:06:05
