LAMMPS data file via write_data, version 30 Jul 2021, timestep = 7500000

1008 atoms
2 atom types
672 bonds
1 bond types
336 angles
1 angle types

-3.266065457922018 14.876064457476225 xlo xhi
-0.1084800351907731 22.68847903518762 ylo yhi
-0.055667639431096205 19.285665639427975 zlo zhi
-0.07130027947170046 -6.599912062647021 0.20166984584087075 xy xz yz

Masses

1 1.008
2 15.999

Pair Coeffs # lj/cut/tip4p/long/omp

1 0 0
2 0.21084 3.1668

Bond Coeffs # harmonic/omp

1 450 0.9572

Angle Coeffs # harmonic/omp

1 55 104.52

Atoms # full

21 7 1 0.5897 0.8855740166883299 2.1021515141576734 0.9462727034631786 0 0 0
55 19 2 -1.1794 -0.9334244199404331 4.44995376011305 3.30826441508799 0 0 0
56 19 1 0.5897 -1.4576711527408133 3.7189924548176636 2.981080579422489 0 0 0
57 19 1 0.5897 -0.2326078565306844 4.5502073213474095 2.6640141246927858 0 0 0
121 41 2 -1.1794 -2.7244333582423392 2.5457541662661063 2.6993027662376483 1 0 0
122 41 1 0.5897 -2.6039384795697034 2.292344583507847 1.7843035887632235 1 0 0
86 29 1 0.5897 -2.481049718287 1.3685061246202488 4.047390085507189 1 0 0
123 41 1 0.5897 -3.6551002706227136 2.7591115965673447 2.768736108696375 1 0 0
31 11 2 -1.1794 1.116504983651616 0.9244536905794096 2.257397977038001 0 0 0
32 11 1 0.5897 0.7954787645401851 1.3209721089712363 3.0671730863854054 0 0 0
53 18 1 0.5897 4.366905111734971 3.2674128143901653 3.01392261007943 0 0 0
46 16 2 -1.1794 1.5750321437036998 4.833716171336823 2.123940247911589 0 0 0
16 6 2 -1.1794 5.339850706686557 4.9772710023012765 0.3097949530218888 0 0 0
33 11 1 0.5897 0.6267058907673149 0.10564011658846378 2.1806612562931087 0 0 0
48 16 1 0.5897 1.7228584112286232 5.539750274312947 2.752974486274923 0 0 0
158 53 1 0.5897 -4.50936186831204 4.584643978788775 4.364940643546466 1 0 0
78 26 1 0.5897 0.02513464194089554 3.1316646943983706 4.590784292113118 0 0 0
603 201 1 0.5897 -0.22308570373631964 3.9971019401842813 -0.04486970707869592 1 0 1
602 201 1 0.5897 -0.47094672146486705 5.319979563055116 0.6480621503193058 1 0 1
70 24 2 -1.1794 3.8418591497116683 0.4758104010697958 1.4549363509479765 0 0 0
54 18 1 0.5897 3.020240589764324 3.9557810809166654 2.942586606897948 0 0 0
47 16 1 0.5897 1.9399021995729395 5.163694617717845 1.302917604644879 0 0 0
71 24 1 0.5897 3.040734313414074 0.6918957613296154 1.9322879005900109 0 0 0
52 18 2 -1.1794 3.592018241659561 3.470985920038077 3.537792208099315 0 0 0
527 176 1 0.5897 3.8226804171447952 1.9172724687018694 0.3059754307658438 0 0 1
6 2 1 0.5897 2.665441398727717 1.5518742470424212 4.7444590348280204 0 0 0
482 161 1 0.5897 -1.39048830750039 -0.059260937276691086 0.9407990502117224 1 1 0
528 176 1 0.5897 2.684734593667023 2.8918404045654826 0.0880810691925212 0 0 1
19 7 2 -1.1794 0.8097737929886035 2.5493144839289053 0.10345180387075906 0 0 0
18 6 1 0.5897 4.72841275576387 4.2522676136645305 0.18032790840009935 0 0 0
163 55 2 -1.1794 -2.3510224685781385 1.3913914194238006 0.2405040250391398 1 0 0
157 53 2 -1.1794 -3.8413099824860106 5.164840245573209 4.7300761539953085 1 0 0
165 55 1 0.5897 -3.076981875988651 0.8370949146207713 -0.04592157749738208 1 0 0
134 45 1 0.5897 -2.4493928139061003 2.5301174521712633 5.934791651403539 1 0 0
135 45 1 0.5897 -1.7035866482477786 3.4863951591506783 6.8408417910925 1 0 0
98 33 1 0.5897 -3.9694072971089267 5.358200307034261 8.758802237650201 1 0 0
34 12 2 -1.1794 0.22264699441196933 1.3864830645341442 7.1667437380163515 0 0 0
35 12 1 0.5897 0.47658900252324266 1.9504930095319044 7.8970972713902166 0 0 0
36 12 1 0.5897 -0.6722079885929348 1.1155831295426009 7.372451743692995 0 0 0
5 2 1 0.5897 2.7381696936066815 0.046194374548910955 4.883884707324361 0 0 0
44 15 1 0.5897 -0.27090935391780535 4.92540674667043 8.109774082523622 0 0 0
68 23 1 0.5897 -3.2157318172036553 0.7256407013933925 7.792638541001266 0 0 0
58 20 2 -1.1794 2.3964323232454863 4.337033203966577 6.250061370278581 0 0 0
59 20 1 0.5897 1.9406068117508326 3.641290163020223 5.776441080711242 0 0 0
77 26 1 0.5897 0.22363390807491346 2.0687504795945317 5.6502206944098505 0 0 0
124 42 2 -1.1794 -5.079883357665746 2.454738542064086 7.531825514128559 1 0 0
126 42 1 0.5897 -4.205342689378947 2.7784103847095456 7.315351247183748 1 0 0
45 15 1 0.5897 0.7098478424798951 4.6231734852162925 6.99687591256489 0 0 0
133 45 2 -1.1794 -2.5857806662410634 3.238035988869067 6.564315476978128 1 0 0
669 223 1 0.5897 -5.583165860149909 1.8114015067138807 9.17121050790857 1 0 0
43 15 2 -1.1794 -0.2029276577478174 4.497205286034068 7.2565622779501195 0 0 0
402 134 1 0.5897 1.4475652280187283 0.06576408879610723 7.80149266784552 0 1 0
159 53 1 0.5897 -3.2995844940137724 4.59411216023614 5.275088096815887 1 0 0
69 23 1 0.5897 -2.520563060989884 1.2428017751022555 9.033884668245754 0 0 0
60 20 1 0.5897 3.1606031032825177 3.905986619363844 6.632917568740039 0 0 0
67 23 2 -1.1794 -2.4183525188504924 0.6225959762598245 8.312147489097454 0 0 0
522 174 1 0.5897 2.09934142175711 5.464863517651641 9.037700598402006 0 0 0
85 29 2 -1.1794 -2.5297919839367964 0.886357437130156 4.872740881210924 1 0 0
401 134 1 0.5897 2.557014072598532 0.29390428732197527 8.805954300494522 0 1 0
4 2 2 -1.1794 3.2389118690121563 0.846197801612186 5.043550922633779 0 0 0
125 42 1 0.5897 -5.673780315797632 3.130710454790361 7.205245043034897 1 0 0
87 29 1 0.5897 -3.4520144405920083 0.6427683435546376 4.954311653041995 1 0 0
24 8 1 0.5897 1.3119750828697656 3.2915295987008 9.526819642265298 0 0 0
22 8 2 -1.1794 0.5329928409211289 2.736124173033355 9.494590804519797 0 0 0
76 26 2 -1.1794 0.5974016578732639 2.4044007215734267 4.835520707136884 0 0 0
550 184 2 -1.1794 -1.5093414000142076 5.105075975678206 11.999911439947523 0 0 0
97 33 2 -1.1794 -3.9693572978048426 4.962395105090772 9.630219431327605 1 0 0
560 187 1 0.5897 -4.502529723748127 3.809976015724279 12.744345295832462 0 0 0
987 329 1 0.5897 -3.465460039860018 0.05340771102560024 11.516402359269698 1 1 0
524 175 1 0.5897 -2.6490557917118274 3.5684363496030147 9.968156648035384 0 0 0
523 175 2 -1.1794 -2.2147798311687863 2.7154569942265177 9.960396766352902 0 0 0
23 8 1 0.5897 0.6637877946498354 2.0983432456136466 10.196181279090109 0 0 0
576 192 1 0.5897 -0.029029525804825873 0.5782803895807112 11.810763696788836 0 0 0
535 179 2 -1.1794 -2.0432260637313684 1.1354285704112232 12.181873751263556 0 0 0
536 179 1 0.5897 -2.2014836350444114 1.5799694973520932 13.014510702214844 0 0 0
537 179 1 0.5897 -2.2556545056119672 1.7897644970869468 11.516414779274196 0 0 0
552 184 1 0.5897 -2.4154472109356266 4.853795070143058 12.179654220539287 0 0 0
625 209 2 -1.1794 -5.623202617133682 2.750360439514968 11.97654192005627 1 0 0
556 186 2 -1.1794 0.6709106414858841 3.8355120393538678 12.889608689463614 0 0 0
557 186 1 0.5897 0.4139503233230917 3.079930207619427 13.418044102361923 0 0 0
668 223 1 0.5897 -5.933366609500945 1.8800612221123996 10.642230186481621 1 0 0
558 186 1 0.5897 -0.13178723270254622 4.096626060354251 12.438119862149836 0 0 0
559 187 2 -1.1794 -3.8507272319539543 4.360900898348804 13.177783808655047 0 0 0
627 209 1 0.5897 -6.546147364774368 2.9724806141913875 12.10032404401624 1 0 0
574 192 2 -1.1794 0.6685759213083853 0.4611702296525849 11.16586356091748 0 0 0
626 209 1 0.5897 -5.438196249880541 2.104614567103788 12.658383571287033 1 0 0
561 187 1 0.5897 -3.344310255035283 3.754030202356071 13.71765471988948 0 0 0
606 202 1 0.5897 -6.024947364723734 4.379564316072207 9.891197932225396 1 0 0
663 221 1 0.5897 -6.8680571499093945 5.622084856034988 13.976164814818938 1 0 0
551 184 1 0.5897 -1.2686472430436888 5.6743458379496 12.730671229955078 0 0 0
525 175 1 0.5897 -1.3126945672482804 2.9076094495681364 9.703914094937918 0 0 0
99 33 1 0.5897 -3.8056689952236136 5.693573339682207 10.225733390953152 1 0 0
662 221 1 0.5897 -7.478380608717199 4.25691890964906 14.212240847019356 1 0 0
667 223 2 -1.1794 -5.987422174823882 1.3073488221106768 9.87737852159293 1 0 0
589 197 2 -1.1794 -5.6869444528638535 1.1926043199748344 14.311231760283825 1 0 0
986 329 1 0.5897 -4.772277511377334 0.2312131671586885 10.772916347509824 1 1 0
591 197 1 0.5897 -5.041356886827591 0.4884199724012884 14.371952368372519 1 0 0
508 170 2 -1.1794 0.5610359848668578 1.4828309028665485 14.379270974753217 0 0 0
520 174 2 -1.1794 2.38179687870561 4.862579393868669 9.725875662926056 0 0 0
629 210 1 0.5897 -8.835353496844785 3.47975727463808 17.020288363277498 1 0 0
593 198 1 0.5897 -7.716954866461706 0.9031485388887619 14.521680247527806 1 0 0
582 194 1 0.5897 -1.8754592965197938 3.2930114801655885 15.100021753157272 0 0 0
630 210 1 0.5897 -8.140414989774445 2.3003017037540925 16.373954869985987 1 0 0
571 191 2 -1.1794 -5.8369420830289895 0.5180629567416096 17.854220205428803 0 0 0
20 7 1 0.5897 -5.867839772009182 2.044011044951172 18.804330161378676 0 0 -1
639 213 1 0.5897 -5.841008901905236 3.957255818963212 15.655689515366355 1 0 0
581 194 1 0.5897 -2.8229812123858897 2.154003822260093 15.411425969656268 0 0 0
538 180 2 -1.1794 -3.1941711240410093 1.3675435213778533 16.992466552272024 0 0 0
539 180 1 0.5897 -3.067435527480301 2.009554053190321 17.69085398323263 0 0 0
547 183 2 -1.1794 -3.355341674665312 4.9836525803558045 16.886894807256247 0 0 0
540 180 1 0.5897 -4.0379580200965 0.9609979770012569 17.19036469473714 0 0 0
638 213 1 0.5897 -5.9524019305386755 3.0845575397497367 16.887554099642543 1 0 0
549 183 1 0.5897 -3.8958187925569145 4.231921223598663 16.64394007476213 0 0 0
562 188 2 -1.1794 -0.9626816836140275 4.446157326483562 16.162591349563904 0 0 0
580 194 2 -1.1794 -2.4628032410136065 2.6617602202999096 14.684374287045227 0 0 0
564 188 1 0.5897 -1.8310285236061352 4.711932200007458 16.46546050466515 0 0 0
637 213 2 -1.1794 -5.365799198519527 3.298476035328002 16.1620648681307 1 0 0
164 55 1 0.5897 -8.593171348317767 1.9575183723761378 18.77234889302108 1 0 -1
628 210 2 -1.1794 -8.196383936553875 2.788752565744266 17.19508331999069 1 0 0
661 221 2 -1.1794 -7.06630847424797 4.9909186238013445 14.667853860060372 1 0 0
563 188 1 0.5897 -0.7557665964187441 5.06040642863976 15.458306553132942 0 0 0
852 284 1 0.5897 -0.7148713704153629 0.10732566580539671 14.672004089080849 0 1 0
84 28 1 0.5897 -4.076616654716569 5.678411349957713 18.401988521302002 0 0 -1
590 197 1 0.5897 -5.5190554166568155 1.7388578432271418 15.078958984125082 1 0 0
572 191 1 0.5897 -6.671048607588299 0.10644591388906505 17.627890162758657 0 0 0
510 170 1 0.5897 0.48350855347911104 1.911323932965801 15.231522103460836 0 0 0
548 183 1 0.5897 -3.594169678750305 5.664290622134427 16.257747937728837 0 0 0
601 201 2 -1.1794 -7.27310847136431 5.036754925385549 19.189421886438016 1 0 0
101 34 1 0.5897 -9.120647726045153 4.744636060552833 19.256098310034332 1 0 -1
526 176 2 -1.1794 -2.9788547221405413 2.9748079262979585 19.269129488291966 0 0 0
289 97 2 -1.1794 -2.4772207251365774 10.196238533100995 2.3839168554520183 1 0 0
255 85 1 0.5897 -2.4310827373390733 8.801088565415139 3.6884390177723336 1 0 0
146 49 1 0.5897 -1.3194049226284348 6.712936815230361 2.426165047654076 1 0 0
147 49 1 0.5897 -1.0576765815036908 7.567846354483829 1.2046489020956324 1 0 0
332 111 1 0.5897 -1.9747912407649402 9.30163257803049 0.9501011322116577 1 0 0
112 38 2 -1.1794 -3.2798572521112694 6.48324058753278 2.4559543411889244 1 0 0
145 49 2 -1.1794 -0.6154200107351464 7.026338036823738 1.8583156268495329 1 0 0
200 67 1 0.5897 0.6929227728424374 8.2889045799677 2.246973203496176 0 0 0
114 38 1 0.5897 -3.212335172089072 5.857190231373144 1.7351927884323284 1 0 0
188 63 1 0.5897 0.9321066008276411 10.264789146156069 1.2508826189048627 0 0 0
199 67 2 -1.1794 1.3291604515046895 8.916070149256251 2.5906565156020473 0 0 0
291 97 1 0.5897 -3.39673520119409 10.444597267939226 2.480359723223627 1 0 0
290 97 1 0.5897 -1.9895157184063224 10.987255703671986 2.6133966312332495 1 0 0
245 82 1 0.5897 0.9715931364761516 9.722642053898145 4.086733841634848 0 0 0
187 63 2 -1.1794 0.9884794852170611 10.395479612102317 0.30446118783568604 0 0 0
694 232 2 -1.1794 3.909475669898301 10.243126508851953 0.1811815582351989 0 0 1
189 63 1 0.5897 1.9239241937692713 10.504399087191173 0.13250684286354059 0 0 0
240 80 1 0.5897 3.639363838306749 7.252352195052201 0.8942039912458216 0 0 0
239 80 1 0.5897 3.9978434496368376 8.722690093905191 0.9316231678346355 0 0 0
220 74 2 -1.1794 3.849130584715403 10.478547375436248 3.421766463152803 0 0 0
174 58 1 0.5897 3.464223141710642 9.189006691489443 4.448284550175439 0 0 0
221 74 1 0.5897 4.677577828781733 10.394733983802228 2.9494962546835866 0 0 0
238 80 2 -1.1794 3.939974279169081 7.9433656947229405 1.4842953810798891 0 0 0
222 74 1 0.5897 3.244867511713025 10.854886551470177 2.7818832920505363 0 0 0
201 67 1 0.5897 2.1797369189107405 8.505807836219697 2.4337030016303958 0 0 0
10 4 2 -1.1794 1.7863233895163058 6.465325397785964 4.605224877202542 0 0 0
9 3 1 0.5897 -1.2506408916583291 5.656231608884778 4.6739772553568075 0 0 0
113 38 1 0.5897 -3.3578433466613387 5.939304387801512 3.2396118763126975 1 0 0
253 85 2 -1.1794 -2.436907652467606 8.709495638985265 4.64108344823739 1 0 0
244 82 2 -1.1794 0.5810971161636029 10.315100707209426 4.729081694999944 0 0 0
331 111 2 -1.1794 -1.816596055862872 8.691432407557286 0.2299345004454763 1 0 0
696 232 1 0.5897 4.609125055448919 10.896375968075635 0.19144463967895078 0 0 1
191 64 1 0.5897 0.7982380946238656 9.923159363817618 8.551609621888995 0 0 0
588 196 1 0.5897 -1.445749290355249 6.731216082390931 9.233311791195423 0 0 0
109 37 2 -1.1794 -4.2757329189046045 6.330763428661112 7.236147826744645 1 0 0
66 22 1 0.5897 2.7331591019184325 6.491076840224658 7.417241892814254 0 0 0
293 98 1 0.5897 -4.03651247441831 10.55029115632282 7.168410797280484 1 0 0
110 37 1 0.5897 -4.253916509141028 6.021779823935018 6.330615213950098 1 0 0
258 86 1 0.5897 -5.094746790479748 9.210375553356307 5.939914063100197 1 0 0
11 4 1 0.5897 2.0717704270394517 5.755179348245745 5.180020773005932 0 0 0
246 82 1 0.5897 0.3209876244373824 9.7459830413311 5.4533609542654045 0 0 0
294 98 1 0.5897 -5.113413748300131 9.940724380618915 8.040622211457414 1 0 0
292 98 2 -1.1794 -4.966878207041108 10.324817188643634 7.17631213671285 1 0 0
64 22 2 -1.1794 2.02868271864042 6.97089066998464 7.852892048968324 0 0 0
111 37 1 0.5897 -5.199834194140028 6.515684680823196 7.404430218142525 1 0 0
202 68 2 -1.1794 0.049057507024979685 8.898506178634872 7.072084353266733 0 0 0
203 68 1 0.5897 -0.7583394837978665 8.631352773429231 7.5115488750107104 0 0 0
204 68 1 0.5897 0.5737943451648975 8.099215580441443 7.027256006382086 0 0 0
172 58 2 -1.1794 3.562532171328094 8.535473086983231 5.140617380772635 0 0 0
235 79 2 -1.1794 -2.221462899009283 7.945201821465208 8.041950715370904 0 0 0
236 79 1 0.5897 -3.0201843177573826 7.50856860349873 7.745736599079595 0 0 0
237 79 1 0.5897 -2.5274494639977325 8.75857939177967 8.443089489754074 0 0 0
302 101 1 0.5897 -2.117031323877556 10.48378458063472 5.750819422042226 1 0 0
837 279 1 0.5897 -6.03736641673974 8.642104011479029 9.166164180441255 1 0 0
301 101 2 -1.1794 -2.4434108609711225 10.980584109895151 6.500961551418674 1 0 0
190 64 2 -1.1794 0.7615157289207808 10.130352918701783 9.485232883608536 0 0 0
173 58 1 0.5897 3.0288979406451144 7.795855272306333 4.850069382910106 0 0 0
8 3 1 0.5897 -0.9922621694809526 6.067097361346566 6.107700558181107 0 0 0
7 3 2 -1.1794 -0.9516230532945178 6.39185490989412 5.2083271818923125 0 0 0
692 231 1 0.5897 -1.2601878770188937 10.359851800377596 9.349699886175328 0 0 0
228 76 1 0.5897 1.725868869755093 11.1286091688206 6.0284482983658325 0 0 0
257 86 1 0.5897 -4.1412345613920785 8.379902688442499 5.107437802260003 1 0 0
586 196 2 -1.1794 -0.7678058697808536 6.156496541080616 9.588849918217308 0 0 0
65 22 1 0.5897 2.479118195559705 7.571685413592747 8.446406782057787 0 0 0
256 86 2 -1.1794 -5.061225883971914 8.635822224756426 5.17522618343356 1 0 0
192 64 1 0.5897 1.3256706668881977 10.897438009714476 9.58314145235143 0 0 0
12 4 1 0.5897 0.8976167774838917 6.66831569424756 4.897509575509768 0 0 0
254 85 1 0.5897 -1.8025511923305215 8.015123322587854 4.819310206776611 1 0 0
750 250 1 0.5897 -2.817720362951758 10.641857721092475 13.928266217643591 0 0 0
514 172 2 -1.1794 -0.8735256658526422 6.440148890461708 14.34792192276811 0 0 0
678 226 1 0.5897 0.572241362159077 9.305884510275087 13.987473535834715 0 0 0
724 242 2 -1.1794 0.8008083004356772 10.722112060777675 12.812364438936292 0 0 0
742 248 2 -1.1794 0.37236730127337614 8.025829628767358 11.019030934208079 0 0 0
836 279 1 0.5897 -4.8047531116916815 8.748552694275133 10.038698417284612 1 0 0
809 270 1 0.5897 -7.4869032072518085 10.669571967156813 12.783911373843235 1 0 0
693 231 1 0.5897 -2.096200983289669 9.798784149507636 10.480228548228732 0 0 0
649 217 2 -1.1794 -4.106535220536088 7.397535781324495 11.05470290648234 1 0 0
650 217 1 0.5897 -3.49015003978076 7.636528751496894 11.74687889480719 1 0 0
651 217 1 0.5897 -4.888699462179174 7.102295950140792 11.520959469322845 1 0 0
795 265 1 0.5897 -5.948356280949612 9.86041541376284 11.411111479527326 1 0 0
744 248 1 0.5897 0.036621906673883764 7.364423878176142 10.414154390438542 0 0 0
793 265 2 -1.1794 -5.896243247630622 10.01884041541525 12.353510211901808 1 0 0
587 196 1 0.5897 -1.1637909980830643 5.774398162550157 10.37198964756325 0 0 0
759 253 1 0.5897 -5.730159252091527 9.094136334777657 13.717519531639624 1 0 0
703 235 2 -1.1794 -1.8776402801389631 8.885486571743844 12.179649975732815 0 0 0
704 235 1 0.5897 -1.0377029371771842 8.497274483011017 11.934251365114495 0 0 0
705 235 1 0.5897 -1.6774582312894628 9.427944061988882 12.942307273354269 0 0 0
743 248 1 0.5897 0.6772398433470213 8.735536379416823 10.453738890120446 0 0 0
616 206 2 -1.1794 -6.66642993899754 6.5287876781783565 12.24652354492733 1 0 0
794 265 1 0.5897 -5.260468697018663 10.728859031142397 12.44268597103719 1 0 0
618 206 1 0.5897 -6.6839203884401135 5.747239319877571 11.694326980872617 1 0 0
513 171 1 0.5897 -3.9361026096104395 6.087125763423156 14.260636394316885 0 0 0
617 206 1 0.5897 -7.2500336168284285 7.146816575813727 11.806381916320541 1 0 0
726 242 1 0.5897 0.0210680454971639 11.149958346412703 12.458349224335743 0 0 0
835 279 2 -1.1794 -5.482486167670487 9.27774868682004 9.618085355132383 1 0 0
725 242 1 0.5897 1.086255799055687 11.294544753347905 13.524311019615649 0 0 0
691 231 2 -1.1794 -2.166707663891423 10.22976549604609 9.628570747729476 0 0 0
512 171 1 0.5897 -4.180794149119959 7.484706797260372 14.788408471494423 0 0 0
695 232 1 0.5897 -2.7784278582834805 10.201911264959977 18.601019517839788 0 0 0
741 247 1 0.5897 -5.846814574525615 9.059583619834097 18.309120088909157 0 0 0
333 111 1 0.5897 -8.408238673927425 9.443307796186659 18.78815532839545 1 0 -1
740 247 1 0.5897 -6.127378166375923 7.764301334469815 17.5776312112744 0 0 0
568 190 2 -1.1794 -1.2734837716511178 7.211148591298594 17.73248284371142 0 0 0
758 253 1 0.5897 -5.617123947641195 9.287466489470697 15.21450716975743 1 0 0
797 266 1 0.5897 -7.234954386248371 10.708104167423173 16.87173439722489 1 0 0
569 190 1 0.5897 -1.5261047680913062 6.459818820083304 18.269001546136963 0 0 0
511 171 2 -1.1794 -3.5683125371126323 6.751128860099165 14.84366457588823 0 0 0
83 28 1 0.5897 -4.9038651005301395 6.906173159216785 18.718582622655344 0 0 -1
749 250 1 0.5897 -2.5393861574867893 10.043847516461332 15.290739366611003 0 0 0
798 266 1 0.5897 -8.321100871930089 9.725117873273378 16.489491447003417 1 0 0
613 205 2 -1.1794 -7.305527083888432 6.555821337413111 16.900549702968107 1 0 0
796 266 2 -1.1794 -8.101496727364175 10.397371583104846 17.134382993017876 1 0 0
706 236 2 -1.1794 -2.8863954131657996 9.340443765887091 16.94828679997586 0 0 0
707 236 1 0.5897 -3.737079543892845 8.95027178122458 17.14962481813996 0 0 0
708 236 1 0.5897 -2.2595414585501548 8.62813121943588 17.074692592683427 0 0 0
739 247 2 -1.1794 -5.411830453829789 8.330044833182406 17.867853648923873 0 0 0
762 254 1 0.5897 -7.515411074523198 8.41374761069278 14.692593431811561 1 0 0
615 205 1 0.5897 -7.347331115482779 6.025587302359828 16.1048885763718 1 0 0
82 28 2 -1.1794 -4.453166325691971 6.169792211008651 19.13193462324349 0 0 -1
805 269 2 -1.1794 -5.706594026987333 11.044376102645364 15.824572267912636 1 0 0
570 190 1 0.5897 -0.4374119642343297 6.956782275189206 17.341779782606466 0 0 0
757 253 2 -1.1794 -5.659507865107439 8.60979738267147 14.53999217186094 1 0 0
760 254 2 -1.1794 -8.395559819183202 8.667127340094916 14.971133021710575 1 0 0
748 250 2 -1.1794 -2.1176317391152253 10.263168336084568 14.460007945173373 0 0 0
807 269 1 0.5897 -4.96643075442887 11.386861282758728 16.325701618568818 1 0 0
614 205 1 0.5897 -7.378567091150813 5.9228317415838 17.61475039745424 1 0 0
653 218 1 0.5897 -8.980529862386732 6.98322366348438 17.35547520178822 1 0 0
676 226 2 -1.1794 0.7189399362686935 8.694833824287548 14.709407882941306 0 0 0
515 172 1 0.5897 -1.7959214705498 6.638561018761 14.510010491886046 0 0 0
516 172 1 0.5897 -0.4185516739820274 7.267232249901219 14.50649150531491 0 0 0
281 94 1 0.5897 -3.458833530572308 13.683778718137829 3.523602113286738 1 0 0
282 94 1 0.5897 -2.7335562075721653 14.368466998352497 2.3847779418351958 1 0 0
500 167 1 0.5897 -2.0098036943470836 16.124063673103112 0.3870365479987401 1 0 0
313 105 2 -1.1794 -1.367122209907965 14.821263554129542 1.372774613173482 1 0 0
315 105 1 0.5897 -1.003831470539784 14.125447137432806 0.8250674483573337 1 0 0
223 75 2 -1.1794 -0.6970143886296007 12.197453025911932 3.1921579467119785 0 0 0
225 75 1 0.5897 -0.8907249986788144 12.970027914342594 3.7228868323399387 0 0 0
280 94 2 -1.1794 -3.6041732979181944 14.090061112382052 2.6692869522333593 1 0 0
314 105 1 0.5897 -0.6142912506109881 15.166211560835853 1.8529258558267918 1 0 0
499 167 2 -1.1794 -2.7274338377898193 16.613598668908125 -0.015089087617262291 1 0 0
224 75 1 0.5897 -0.4033552637516564 11.540236718713414 3.8230180603192436 0 0 0
216 72 1 0.5897 0.8510298204773381 12.319741462478756 2.4206493804555094 0 0 0
252 84 1 0.5897 2.828702575342108 14.280461511124917 0.5522312074280519 0 0 0
178 60 2 -1.1794 1.7690107792256295 13.732656578365361 4.739558071505952 0 0 0
408 136 1 0.5897 3.767495208022827 16.028742757751967 1.2782092502164006 0 0 0
180 60 1 0.5897 1.8354498188445323 13.209672839231022 3.940780721469639 0 0 0
406 136 2 -1.1794 3.3823075286712614 15.421075418469242 1.90952432786219 0 0 0
368 123 1 0.5897 1.582088672615047 15.787283363107532 2.369324357967549 0 0 0
214 72 2 -1.1794 1.7962759608210668 12.387108180889795 2.28473827617982 0 0 0
407 136 1 0.5897 4.11860251282875 14.887602474281325 2.208930313248517 0 0 0
215 72 1 0.5897 1.886416507939825 12.798072429349736 1.4250702225266039 0 0 0
367 123 2 -1.1794 0.6889523597621503 16.086250079215066 2.540642657397223 0 0 0
369 123 1 0.5897 0.7493619724534666 16.559423772119356 3.370354169747955 0 0 0
176 59 1 0.5897 -1.49037080334667 15.042849626624637 4.675564471546946 0 0 0
177 59 1 0.5897 -0.1286378840425435 14.381584068725983 4.704914977718093 0 0 0
770 257 1 0.5897 -1.569483166815443 12.303179913730537 0.1286091017085366 1 0 1
771 257 1 0.5897 -0.16303471956907956 11.756531377376357 0.0038877307333626612 1 0 1
404 135 1 0.5897 -1.799624607319159 15.881521105183857 7.781560753289246 0 0 0
756 252 1 0.5897 -1.5166453481118451 14.82080578931298 9.586765173117406 0 0 0
303 101 1 0.5897 -1.6922587516301606 11.498283284989078 6.790870562370083 1 0 0
327 109 1 0.5897 -4.321074265347 13.241624349757798 5.726133809642687 1 0 0
179 60 1 0.5897 2.1178541700133735 13.16558929863269 5.427220254377676 0 0 0
211 71 2 -1.1794 -0.36246461747352665 12.742888650104202 7.205550097619159 0 0 0
226 76 2 -1.1794 2.1444880160450204 11.789916497261212 6.579386767583456 0 0 0
213 71 1 0.5897 -0.4829995669475666 13.43192648133166 6.552240043186989 0 0 0
212 71 1 0.5897 -0.4781984653229703 13.186165829416986 8.045831994322782 0 0 0
341 114 1 0.5897 2.778840779410217 15.213390342956227 5.04020402562677 0 0 0
232 78 2 -1.1794 1.9507583833534508 14.66039405761918 8.160350449701527 0 0 0
405 135 1 0.5897 -2.5321492355742605 16.580555837270314 8.906889242098623 0 0 0
234 78 1 0.5897 1.4166346782017065 15.224526476737346 7.601151325837949 0 0 0
370 124 2 -1.1794 -0.038432148978278846 16.261992770908588 7.1489206415295925 0 0 0
227 76 1 0.5897 1.435499426475472 12.132078705672726 7.123955352847051 0 0 0
277 93 2 -1.1794 -4.398876886521318 14.08778607839111 7.438459663175679 1 0 0
278 93 1 0.5897 -3.7657164760526003 14.736071718086134 7.746839359425241 1 0 0
690 230 1 0.5897 2.0050497213274205 13.29788278764252 9.220900770688957 0 0 0
233 78 1 0.5897 2.7239863473180037 14.46146579304751 7.632261100070282 0 0 0
403 135 2 -1.1794 -2.579077202267964 15.815767254671805 8.333359222078695 0 0 0
326 109 1 0.5897 -3.4920677841703975 12.03060108937843 5.35447164265738 1 0 0
267 89 1 0.5897 -4.206581394619542 12.808497247395547 8.992775758425275 1 0 0
279 93 1 0.5897 -5.248298401185913 14.52006020669694 7.528225785428928 1 0 0
325 109 2 -1.1794 -4.114311314832419 12.661938236844648 4.993170111464259 1 0 0
340 114 2 -1.1794 3.273302315564597 16.000235541035238 5.2695761795298734 0 0 0
371 124 1 0.5897 0.19003097727739693 16.89690151070597 7.827686060901184 0 0 0
372 124 1 0.5897 0.1071665910738524 16.728099483360044 6.325748623715181 0 0 0
425 142 1 0.5897 -4.384544794874261 16.055434556445164 5.10457315281073 1 0 0
421 141 2 -1.1794 -2.4833592845859194 16.539869559284185 4.8077948131210375 1 0 0
175 59 2 -1.1794 -1.0602796655588134 14.202306720841115 4.832965734539282 0 0 0
1003 335 2 -1.1794 -5.441845447496021 16.683232508551722 10.054503313069816 1 0 0
684 228 1 0.5897 -0.6167675855664729 15.090038273224874 14.306121318578562 0 0 0
925 309 2 -1.1794 -5.4916027336507955 16.282890481914805 14.190888778460229 1 0 0
718 240 2 -1.1794 -1.3175833019726202 12.450377414789157 12.033550015506096 0 0 0
728 243 1 0.5897 -3.0432197007427213 12.019435615642177 12.429945934938548 0 0 0
720 240 1 0.5897 -1.1074592705370314 13.203325212924607 12.585806517574818 0 0 0
755 252 1 0.5897 -0.12707414388809335 14.500506252013736 10.095482773523425 0 0 0
871 291 2 -1.1794 -2.165047218763984 16.807843135606657 12.398164224805225 0 0 0
727 243 2 -1.1794 -3.80753902648021 11.823960725559784 12.972121559577818 0 0 0
784 262 2 -1.1794 -6.707240417359463 14.213360946896497 11.981061451410708 1 0 0
729 243 1 0.5897 -3.9290429123984985 12.608195125623658 13.507181259533548 0 0 0
911 304 1 0.5897 0.07407348102511424 16.320507773950336 11.98799698881619 0 0 0
910 304 2 -1.1794 0.6071773715694881 16.0470234957914 11.241569841777316 0 0 0
912 304 1 0.5897 1.3529047331813278 15.59193997404906 11.632881325406965 0 0 0
682 228 2 -1.1794 -0.9882991268510066 14.243361059442732 14.058579398298239 0 0 0
719 240 1 0.5897 -1.309843800568161 12.797506233929116 11.141673678468432 0 0 0
786 262 1 0.5897 -6.86527256289015 13.889372552510306 12.867679785902434 1 0 0
817 273 2 -1.1794 -3.759414710846345 14.789443651177432 11.485428959504834 1 0 0
818 273 1 0.5897 -4.674718819438608 14.712476891939298 11.75517637360681 1 0 0
819 273 1 0.5897 -3.554015722462501 13.942771792093646 11.089090282286968 1 0 0
873 291 1 0.5897 -2.607231753586274 16.017196717626028 12.089111372566466 0 0 0
1005 335 1 0.5897 -4.583627101925384 16.300391336724495 10.237073296723311 1 0 0
265 89 2 -1.1794 -4.0844822176082385 12.48254951964713 9.884326105482272 1 0 0
831 277 1 0.5897 -7.634397426080315 12.227223562093434 13.965210654668494 1 0 0
926 309 1 0.5897 -5.014001430780327 15.45533594788624 14.247956447806672 1 0 0
688 230 2 -1.1794 2.2079953614097434 12.502745508416861 9.713501021012952 0 0 0
785 262 1 0.5897 -7.285796169759362 14.971197157085333 11.895811240236565 1 0 0
754 252 2 -1.1794 -0.9333369173851294 14.088226512267436 9.78525465151329 0 0 0
829 277 2 -1.1794 -7.037238456977954 12.923974549719663 14.237588803317442 1 0 0
266 89 1 0.5897 -3.4771207129112898 11.748632697878001 9.790570487057533 1 0 0
774 258 1 0.5897 -6.0097409552173024 12.142441825543585 9.745536889572486 1 0 0
928 310 2 -1.1794 -8.302494234268057 16.169109882908387 14.827588526213404 1 0 0
806 269 1 0.5897 -6.038901908284577 11.800244434559472 15.340384734563894 1 0 0
717 239 1 0.5897 -2.792753727585393 12.373451527809637 16.984542232807442 0 0 0
930 310 1 0.5897 -7.3530456126037125 16.067386557809844 14.759190790499995 1 0 0
927 309 1 0.5897 -4.9797578840498185 16.892354812132368 14.722541195527782 1 0 0
681 227 1 0.5897 -3.716484902270019 13.58956672889492 15.516801780754307 0 0 0
683 228 1 0.5897 -0.9240517141081863 13.711823182268793 14.851930581492159 0 0 0
874 292 2 -1.1794 -3.340611720332504 16.071764003095097 17.130610256427094 0 0 0
715 239 2 -1.1794 -3.729661479719578 12.559330340102278 16.92013367968573 0 0 0
716 239 1 0.5897 -3.9251173445284078 13.080237899783972 17.6988865527531 0 0 0
731 244 1 0.5897 -1.6124249247088773 11.761815132222587 15.311323253130439 0 0 0
907 303 2 -1.1794 -5.955575963202208 15.800963312955739 18.091120946939494 0 0 0
844 282 2 -1.1794 0.28610771193091544 16.58570964328722 14.716217540341038 0 0 0
876 292 1 0.5897 -2.672061164319599 15.38697766607227 17.10969624447256 0 0 0
736 246 2 -1.1794 -1.0416652548506056 14.846782065883472 17.673059791004967 0 0 0
909 303 1 0.5897 -5.148044356134463 15.935043112102072 17.59485070370462 0 0 0
781 261 2 -1.1794 -7.764989192574011 13.946803994073576 16.70969603181511 1 0 0
782 261 1 0.5897 -7.465958988119807 13.429336678459611 17.457308571774483 1 0 0
730 244 2 -1.1794 -1.2123750337382777 12.298994519875237 15.9950127029433 0 0 0
908 303 1 0.5897 -6.452475931603187 15.166714080397448 17.574462300668625 0 0 0
830 277 1 0.5897 -7.49643565798986 13.368438787302468 14.95007676608936 1 0 0
783 261 1 0.5897 -8.609815910206457 14.302154242856885 16.986126609614708 1 0 0
251 84 1 0.5897 -4.837535146888356 14.695145978429704 18.840272155596566 0 0 -1
875 292 1 0.5897 -3.288173131788498 16.48474789478977 16.26880077604375 0 0 0
185 62 1 0.5897 -1.1684712049301105 13.270563279920886 18.67482789440906 0 0 -1