LAMMPS (30 Jul 2021)
  using 1 OpenMP thread(s) per MPI task
package omp 0
using multi-threaded neighbor list subroutines
echo both

include		in.partitions
variable        pid world 0
include		in.temp
variable        temperature equal 263.59
variable	tempDamp equal 100.0
include		in.pressure
variable        pressure equal 4750.0
variable        pressureDamp equal 1000.0 # This is 1 ps
include		in.seed
variable        seed world 745823

units		real
atom_style	full
read_restart	restart.lmp.${pid}
read_restart	restart.lmp.0
Reading restart file ...
  restart file = 30 Jul 2021, LAMMPS = 30 Jul 2021
  restoring atom style full from restart
  orthogonal box = (0.43230374 1.6007280 0.52740955) to (17.775269 22.028450 21.685786)
  4 by 4 by 4 MPI processor grid
  restoring pair style lj/cut/tip4p/long/omp from restart
  restoring bond style harmonic/omp from restart
  restoring angle style harmonic/omp from restart
  864 atoms
  576 bonds
  288 angles
Finding 1-2 1-3 1-4 neighbors ...
  special bond factors lj:    0        0        0       
  special bond factors coul:  0        0        0       
     2 = max # of 1-2 neighbors
     1 = max # of 1-3 neighbors
     1 = max # of 1-4 neighbors
     2 = max # of special neighbors
  special bonds CPU = 0.370 seconds
  read_restart CPU = 0.646 seconds
include 	in.setup
variable	out_freq equal 1000
variable	out_freq2 equal 10000
variable	out_freq3 equal 1000

timestep	2.0

neigh_modify    delay 7 every 1

include		in.tip4p
# This is TIP4P/Ice

# create groups ###
group ox type 2
288 atoms in group ox
group hy type 1
576 atoms in group hy

# set charges - beside manually ###
set group ox charge -1.1794
Setting atom values ...
  288 settings made for charge
set group hy charge 0.5897
Setting atom values ...
  576 settings made for charge

# ### TIP3P Potential Parameters ###
pair_style lj/cut/tip4p/long/omp 2 1 1 1 0.1577 8.5
pair_coeff 1 1*2 0.000 0.000
pair_coeff 2 2 0.21084 3.1668
bond_style  harmonic
bond_coeff  1 450 0.9572
angle_style harmonic
angle_coeff 1 55 104.52
kspace_style pppm/tip4p/omp 1.0e-5
pair_modify tail yes

thermo          ${out_freq}
thermo          1000
thermo_style    custom step temp pe etotal epair emol press lx ly lz vol pxx pyy pzz pxy pxz pyz enthalpy

restart 	${out_freq3} restart.lmp.${pid} restart2.lmp.${pid}
restart 	1000 restart.lmp.${pid} restart2.lmp.${pid}
restart 	1000 restart.lmp.0 restart2.lmp.${pid}
restart 	1000 restart.lmp.0 restart2.lmp.0


include         in.dump
dump            myDump all atom ${out_freq2} dump.water.${pid}
dump            myDump all atom 10000 dump.water.${pid}
dump            myDump all atom 10000 dump.water.0
dump            myDump2 all dcd ${out_freq2} dump.dcd
dump            myDump2 all dcd 10000 dump.dcd
dump_modify     myDump append yes
dump_modify     myDump2 append yes


variable natoms 	equal  "count(all)"                        # NUMBER ATOMS
variable H      	equal  "enthalpy/v_natoms"                 # ENTHALPY-per-atom
variable Vol      	equal  "vol/v_natoms"                 # volume-per-atom
fix AVG all 		ave/time ${out_freq} 1 ${out_freq} v_Vol v_H file vol_enthalpy.dat
fix AVG all 		ave/time 1000 1 ${out_freq} v_Vol v_H file vol_enthalpy.dat
fix AVG all 		ave/time 1000 1 1000 v_Vol v_H file vol_enthalpy.dat


timer           timeout 23:50:00 every 1000
New timer settings: style=normal  mode=nosync  timeout=23:50:00

fix 		1 all shake 1e-6 200 0 b 1 a 1
       0 = # of size 2 clusters
       0 = # of size 3 clusters
       0 = # of size 4 clusters
     288 = # of frozen angles
  find clusters CPU = 0.085 seconds
fix             2 all nph iso ${pressure} ${pressure} ${pressureDamp}
fix             2 all nph iso 4750 ${pressure} ${pressureDamp}
fix             2 all nph iso 4750 4750 ${pressureDamp}
fix             2 all nph iso 4750 4750 1000
fix             3 all temp/csvr ${temperature} ${temperature} ${tempDamp} ${seed}
fix             3 all temp/csvr 263.59 ${temperature} ${tempDamp} ${seed}
fix             3 all temp/csvr 263.59 263.59 ${tempDamp} ${seed}
fix             3 all temp/csvr 263.59 263.59 100 ${seed}
fix             3 all temp/csvr 263.59 263.59 100 745823

run             250000
PPPM initialization ...
  extracting TIP4P info from pair style
  using 12-bit tables for long-range coulomb (../kspace.cpp:340)
  G vector (1/distance) = 0.37405541
  grid = 24 24 25
  stencil order = 5
  estimated absolute RMS force accuracy = 0.003094826
  estimated relative force accuracy = 9.3199766e-06
  using double precision FFTW3
  3d grid and FFT values/proc = 2730 288
Last active /omp style is kspace_style pppm/tip4p/omp
Neighbor list info ...
  update every 1 steps, delay 7 steps, check yes
  max neighbors/atom: 2000, page size: 100000
  master list distance cutoff = 10.8154
  ghost atom cutoff = 10.8154
  binsize = 5.4077, bins = 4 4 4
  1 neighbor lists, perpetual/occasional/extra = 1 0 0
  (1) pair lj/cut/tip4p/long/omp, perpetual
      attributes: half, newton on, omp
      pair build: half/bin/newton/omp
      stencil: half/bin/3d
      bin: standard
Per MPI rank memory allocation (min/avg/max) = 9.238 | 9.243 | 9.248 Mbytes
Step Temp PotEng TotEng E_pair E_mol Press Lx Ly Lz Volume Pxx Pyy Pzz Pxy Pxz Pyz Enthalpy 
 3250000    262.22463   -3809.7904   -3360.3463   -3809.7904            0    3440.4444    17.342965    20.427722    21.158377    7495.9318     3221.241    4479.0281    2621.0641   -40.989213    102.34396   -2203.4844   -2984.2353 
 3251000    259.46448   -3820.7405   -3376.0273   -3820.7405            0    5244.7661    17.290898    20.366393    21.094855    7428.6211    4494.0265    5071.4821    6168.7897   -656.75624   -130.94742    386.11093   -2807.8155 
 3252000    259.79006    -3825.213   -3379.9417    -3825.213            0    5380.2454      17.2795    20.352969     21.08095    7413.9408    5579.6057    5956.4762    4604.6543    302.66125   -1311.3102   -407.66156   -2798.2042 
 3253000    274.35527   -3847.9033   -3377.6677   -3847.9033            0    4770.1469    17.282957    20.357041    21.085167    7418.3914    4213.7472    5685.5052    4411.1884    1826.7833    1345.7627    -626.4504   -2861.5873 
 3254000    256.38382   -3871.7472   -3432.3141   -3871.7472            0     5150.195    17.228211    20.292557    21.018377    7348.1184    4577.8136    5949.1884    4923.5831   -607.54496   -243.30876   -279.63715   -2880.3947 
 3255000    268.70715   -3851.2178    -3390.663   -3851.2178            0     3736.831    17.254425    20.323434    21.050358    7381.7116    2865.3805    3247.6402    5097.4724    854.18071   -507.81825    411.96769   -2988.3756 
 3256000    268.08893   -3847.0636   -3387.5684   -3847.0636            0    5560.5235    17.281444    20.355258    21.083321    7416.4434    4691.4043    6229.4278    5760.7384   -430.14396   -501.59806   -976.19325   -2786.1354 
 3257000    268.55559   -3865.6278   -3405.3327   -3865.6278            0    4878.4858    17.317331    20.397529    21.127104    7462.7431    4185.8983    4174.5898    6274.9693    570.71169   -89.128833   -1025.7873   -2874.3756 
 3258000    263.74069    -3836.323   -3384.2805    -3836.323            0    3246.7151    17.390871    20.484149    21.216822     7558.221    2066.2707    2287.1707    5386.7039   -663.41015   -423.33185   -408.11561   -3026.3986 
 3259000    269.90696   -3821.6882   -3359.0769   -3821.6882            0    4640.4524    17.350851     20.43701    21.167997    7506.1617    4400.4096    5115.7869    4405.1607    623.29631    432.83441    1656.7824   -2851.0881 
 3260000    267.44065   -3847.7371    -3389.353   -3847.7371            0    5278.9925    17.295287    20.371564     21.10021    7434.2801    5156.3967     6741.443    3939.1376    42.701104     412.6828   -353.70693   -2816.9975 
 3261000    264.57601   -3858.4443   -3404.9701   -3858.4443            0    3877.8187    17.353974    20.440689    21.171807    7510.2155    4743.5509    3632.4597    3257.4454    313.46141     -301.391    781.29841   -2980.2373 
 3262000    265.54761   -3812.9905    -3357.851   -3812.9905            0    4485.4145    17.283902    20.358154    21.086321    7419.6089    2817.2619    4637.7165    6001.2651   -417.24192    946.31036   -259.60792    -2872.496 
 3263000    270.62028   -3835.3995   -3371.5656   -3835.3995            0    4283.9828    17.277112    20.350156    21.078036    7410.8671     3444.653     3779.841    5627.4544    87.751289    1685.7374   -833.54534   -2908.5532 
 3264000    254.93746   -3867.2604   -3430.3063   -3867.2604            0    6266.5427    17.192296    20.250254    20.974561    7302.2589    6306.2947    5899.5667    6593.7666    275.22235   -330.08779   -425.83687   -2762.9449 
 3265000    259.70792   -3847.5267   -3402.3962   -3847.5267            0    4064.6026    17.318854    20.399322    21.128961    7464.7114    3768.0664    4236.9345    4188.8067    -930.7168   -419.16406    1055.2115   -2959.9026 
 3266000     271.8267   -3862.5498   -3396.6481   -3862.5498            0    5037.2489    17.204523    20.264655    20.989477    7317.8495    3918.6668    6300.8772    4892.2028    1564.7263    629.95411    852.78164   -2859.0561 
 3267000    267.53727   -3857.3462   -3398.7965   -3857.3462            0     4835.246    17.270201    20.342015    21.069605    7401.9773    3814.9121    6381.9142    4308.9117    427.26582     834.8191    940.34291   -2876.8305 
 3268000    247.58143   -3854.6873   -3430.3412   -3854.6873            0    3947.6908    17.358793    20.446365    21.177686    7516.4734     3759.215    3620.0561    4463.8012    840.54167    687.05498   -1069.0213   -2997.5951 
 3269000    271.69534   -3843.0974   -3377.4209   -3843.0974            0       4943.1    17.319701     20.40032    21.129995    7465.8074    4964.4083    4675.4736    5189.4181   -884.31874    787.09812    1131.0905   -2839.2105 
 3270000     249.3417   -3838.6355   -3411.2724   -3838.6355            0    6012.7611    17.324152    20.405563    21.135425    7471.5649    5417.7855    6956.8901    5663.6078   -533.36735   -355.58208    67.805992   -2756.0912 
 3271000    252.50752   -3837.8391   -3405.0498   -3837.8391            0    6682.7893    17.306153    20.384362    21.113466     7448.301    9118.1505    4995.8982    5934.3192    395.38565   -427.17887   -985.15131   -2679.1263 
 3272000    273.73776   -3859.5196   -3390.3424   -3859.5196            0    5230.8773     17.31276    20.392144    21.121527    7456.8345    6051.5701    2835.3171    6805.7446   -1220.5222    260.85679   -995.14124    -2821.483 
 3273000    263.06781   -3858.5756   -3407.6864   -3858.5756            0    6325.5191    17.229517    20.294095     21.01997    7349.7894    4733.9617    8127.7739    6114.8216     78.96984   -818.60266    957.17664   -2729.6594 
 3274000    281.27428   -3804.9878   -3322.8933   -3804.9878            0    5549.6397     17.21707    20.279434    21.004785    7333.8716    5826.4406    5019.7508    5802.7278   -41.572305   -908.13175   -1013.9404   -2729.3205 
 3275000    264.62108   -3832.1116   -3378.5602   -3832.1116            0    5618.0653    17.350088    20.436112    21.167067    7505.1719    6347.4459    6078.1796    4428.5703   -124.17721   -494.56645   -746.44244   -2763.6335 
 3276000     270.8258   -3823.3636   -3359.1774   -3823.3636            0    3851.0696    17.328096    20.410208    21.140237    7476.6684    2760.4499    4791.1151    4001.6439     881.5834    1941.4924   -388.54764   -2939.2586 
 3277000    267.48232   -3827.1911   -3368.7355   -3827.1911            0    5100.6706    17.309524    20.388333    21.117579    7452.6541    4940.6974    5380.6812    4980.6331    1068.8236   -95.805082    164.77991   -2814.3471 
 3278000    269.33719   -3862.8527   -3401.2179   -3862.8527            0    5337.2812    17.204755    20.264929    20.989761    7318.1459    5650.5158     6292.361    4068.9668      804.521   -929.34887    1381.9496   -2831.5824 
 3279000    258.41609   -3868.1789   -3425.2626   -3868.1789            0    5932.8369    17.274437    20.347005    21.074773     7407.426    6335.5683    4728.1741    6734.7684   -624.27995   -349.44149   -1358.9858   -2784.3399 
 3280000    272.38312   -3849.6106   -3382.7553   -3849.6106            0    4364.8854    17.402562     20.49792    21.231085    7573.4748    4200.2471    4496.5316    4397.8776   -2206.5776    1107.2979    -1005.294   -2900.6477 
 3281000    271.33682   -3836.2778   -3371.2158   -3836.2778            0    5693.8065    17.323629    20.404947    21.134787    7470.8879    3310.5304    5404.6727    8366.2164   -178.71855    960.47489   -323.80905   -2750.8457 
 3282000     261.7555   -3809.1943   -3360.5543   -3809.1943            0    5947.4732    17.226366    20.290383    21.016126    7345.7572    5041.1909    7921.1246     4880.104    77.596165    724.78009   -548.37578   -2723.3995 
 3283000    276.37634   -3875.6897   -3401.9901   -3875.6897            0    5331.9855    17.245721    20.313182     21.03974    7370.5462     5178.159    4482.2087    6335.5888   -1154.9565   -2075.7626    -745.5225   -2828.8451 
 3284000    264.06912   -3886.7397   -3434.1343   -3886.7397            0    4364.6471    17.243495     20.31056    21.037024    7367.6928    4018.4651    5413.4672    3662.0089    725.81945   -85.505411   -520.94411   -2965.1519 
 3285000    261.15213   -3889.7426   -3442.1368   -3889.7426            0     5008.202    17.248869    20.316889     21.04358    7374.5827     3299.444    7051.4164    4673.7456   -1628.4552    89.573003    936.96743    -2903.501 
 3286000    259.61249   -3898.7108   -3453.7439   -3898.7108            0    6112.3687     17.25332    20.322132     21.04901    7380.2931    7232.0935    4980.7465    6124.2661    55.270358    154.62721   -484.46855   -2795.8452 
 3287000    264.51574   -3851.9628   -3398.5919   -3851.9628            0    6972.5404    17.267787    20.339173     21.06666    7398.8745    7892.4855    6963.9602    6061.1755   -912.19121    1471.3628   -127.08096     -2646.22 
 3288000    264.07591   -3838.8138   -3386.1967   -3838.8138            0    4103.4775     17.32071    20.401509    21.131226    7467.1123    5958.7359    4834.6932    1517.0033    697.97153    453.96054    1309.3222   -2939.3273 
 3289000    268.61707   -3853.4521   -3393.0517   -3853.4521            0    6103.1678    17.240956    20.307569    21.033926    7364.4382    5123.3829    7258.2462    5927.8742     936.6532   -38.700826   -307.38886   -2737.5545 
 3290000    261.93125   -3863.2068   -3414.2656   -3863.2068            0    4326.4949    17.352558    20.439021     21.17008    7508.3771    5000.3825    2231.4964    5747.6059   -746.64363   -337.57918      1772.84   -2940.5058 
 3291000    253.37602   -3837.1785   -3402.9006   -3837.1785            0    5359.4304     17.41425    20.511686    21.245344    7588.7437    6162.6203    4489.1063    5426.5644   -32.526224      1421.33   -77.791906   -2809.7508 
 3292000    264.83501   -3841.6271   -3387.7089   -3841.6271            0     5357.389    17.307179    20.385571    21.114718    7449.6258    5337.9263    4244.6743    6489.5663   -696.14009    633.78855   -653.36705   -2805.6546 
 3293000    273.96343   -3842.5653   -3373.0014   -3842.5653            0    4125.4844    17.393285    20.486992    21.219767    7561.3689    6036.8729    3245.8244     3093.756   -722.88989   -1603.5405   -504.87438   -2918.0644 
 3294000    268.50792   -3828.7868   -3368.5734   -3828.7868            0    6136.2086    17.306687    20.384991    21.114118    7448.9903    5773.4602    5351.7645     7283.401    1899.2579   -130.36745    1281.8422    -2701.961 
 3295000    247.74563   -3882.8182   -3458.1907   -3882.8182            0    3462.6446    17.408141    20.504491    21.237892    7580.7611    2740.8562    2849.7537    4797.3239    508.41787    502.28985    858.81859    -3075.369 
 3296000    269.44653   -3874.4781    -3412.656   -3874.4781            0    4820.2108    17.374306    20.464637    21.196612    7536.6432    5280.3875    5903.7988    3276.4461    422.51752     1079.479    415.90534   -2882.8464 
 3297000    252.85399   -3845.3493   -3411.9662   -3845.3493            0    3684.0321    17.371314    20.461113    21.192962    7532.7505    3603.4943    2842.6635    4605.9387   -797.64224    1635.7645    91.110528   -3007.2479 
 3298000    269.58921   -3860.7361   -3398.6694   -3860.7361            0    2822.6869     17.38944    20.482463    21.215076    7556.3553    2077.0799    2219.2311    4171.7496    1124.2427     1139.698   -1570.4122   -3087.6045 
 3299000    270.94079   -3822.8302   -3358.4469   -3822.8302            0    5195.0105    17.361573     20.44964    21.181079    7520.0865    2936.3163    7078.7244    5569.9908    77.179723    1292.3747    726.78271   -2788.6959 
 3300000    269.71284   -3866.9987   -3404.7201   -3866.9987            0    3526.6982    17.382034     20.47374     21.20604    7546.7044     3513.079    3359.4485     3707.567    495.38713    358.46422   -298.18838   -3016.5684 
 3301000    257.90797   -3824.1951   -3382.1496   -3824.1951            0    3824.9133    17.455625     20.56042    21.295822    7642.9637    3043.6805    4049.5956    4381.4638    -496.9681   -968.53504   -14.297865   -2955.8065 
 3302000    258.93244   -3875.2409   -3431.4395   -3875.2409            0    5506.3342    17.310139    20.389058     21.11833     7453.449    5627.2522    5319.2178    5572.5327   -520.59121    1048.4124    155.81399    -2832.896 
 3303000    275.36284   -3919.7006   -3447.7381   -3919.7006            0    4670.9283    17.374351     20.46469    21.196667     7536.702    5130.3304    3300.2891    5582.1653   -1518.4343    1524.8195   -1426.9049   -2934.3327 
 3304000    273.37508   -3834.4452   -3365.8896   -3834.4452            0    4361.3286    17.294054    20.370112    21.098706    7432.6904    4575.8629    5467.7794    3040.3436    102.96534    26.055762    646.93013   -2893.1296 
 3305000    266.73289   -3867.1999   -3410.0288   -3867.1999            0    2994.4047    17.337388    20.421153    21.151572    7488.7024    373.68814    4790.4612    3819.0646   -379.94229   -422.90388   -818.25506   -3082.9948 
 3306000    284.01261   -3851.8028   -3365.0149   -3851.8028            0    5300.9902    17.235395    20.301019    21.027142     7357.315    2946.6118    6739.6271    6216.7316    560.69112   -897.22347   -548.12093   -2796.2245 
 3307000    267.86453   -3875.1793   -3416.0686   -3875.1793            0    5188.3276    17.214345    20.276224    21.001461    7330.3901    5130.7586    5978.3893    4455.8349   -435.97974   -102.73424   -1378.5408   -2861.4041 
 3308000    253.49312   -3836.9435   -3402.4649   -3836.9435            0    3683.3555    17.357295    20.444601    21.175859    7514.5283    4561.1429    3770.3879    2718.5356    368.21449    270.78309   -636.20365   -2998.7998 
 3309000     266.4161   -3853.7248   -3397.0967   -3853.7248            0    3057.3436    17.324663    20.406165    21.136049     7472.226    2017.1665    4859.7107    2295.1538   -303.29176    367.31191    472.94111   -3063.9234 
 3310000    247.42501    -3862.585    -3438.507    -3862.585            0    4167.9979    17.355436    20.442411    21.173591    7512.1135    4546.6118    2299.5533    5657.8287   -1774.1353   -384.24366   -271.08008   -2981.8758 
 3311000    261.51291   -3866.6326   -3418.4085   -3866.6326            0    2794.5832    17.373635    20.463847    21.195794     7535.771    4804.8613    1058.3298    2520.5586    1511.7968   -2030.9192   -22.287829   -3111.2796 
 3312000    265.81797   -3825.1772   -3369.5743   -3825.1772            0    3356.0279     17.40945    20.506033    21.239489    7582.4713    2424.0793    2937.1429    4706.8616   -904.30333      524.445    1290.6921   -2998.4561 
 3313000    258.49996    -3811.456   -3368.3959    -3811.456            0    6204.4816    17.368968     20.45835      21.1901    7529.6994    6491.5457    5726.2275    6395.6717   -657.76528   -1448.5119   -127.43382   -2687.0635 
 3314000     257.6819   -3832.9337   -3391.2757   -3832.9337            0    4113.8788    17.370841    20.460557    21.192386    7532.1361    5863.9625    3506.7864    2970.8876   -50.516997     239.9544    1529.5435   -2939.3724 
 3315000    257.50886   -3872.4209   -3431.0595   -3872.4209            0    3186.2732    17.363584    20.452008    21.183532    7522.6991    3115.8736    4527.9466    1914.9993    1079.3967     256.8555    803.72608   -3081.4907 
 3316000    277.44727   -3832.5063   -3356.9711   -3832.5063            0    1919.9525    17.328662    20.410875    21.140927    7477.4009    921.10597    2062.1411    2776.6103   -229.78617    156.14229     524.5987   -3147.5999 
 3317000    251.11648   -3856.0984   -3425.6934   -3856.0984            0    3506.2198     17.33426    20.417469    21.147757    7484.6505    3529.6585    1907.1979     5081.803    993.28629   -178.32021   -209.83102   -3042.9686 
 3318000    272.97957   -3835.2992   -3367.4216   -3835.2992            0    5880.1816    17.301281    20.378623    21.107522    7442.0114    5508.8017    6426.7417    5705.0014    510.08244    1115.7984    417.62988   -2729.2213 
 3319000    251.01014   -3860.0906   -3429.8678   -3860.0906            0    4591.3703     17.20749     20.26815    20.993097    7321.6364    3702.3488    4297.7325    5774.0297     1838.179     63.62475    961.73994   -2939.6079 
 3320000    259.24504   -3834.1764   -3389.8393   -3834.1764            0    3616.3355    17.352924    20.439453    21.170527    7508.8531    3497.7147    3840.5321    3510.7598   -1415.1402    174.59342    341.96497   -2993.8183 
 3321000    264.74109   -3869.5136   -3415.7564   -3869.5136            0    4005.8709    17.374534    20.464906    21.196891    7536.9404    2641.6262    5413.4785    3962.5081   -446.89877    603.82202    423.28797   -2975.4369 
 3322000    274.90448   -3807.2341   -3336.0573   -3807.2341            0    3962.7731    17.344987    20.430103    21.160843    7498.5534    4149.5696    4187.0401    3551.7097    467.52245   -1751.8823    1574.2209   -2902.6935 
 3323000    261.13963     -3890.26   -3442.6756     -3890.26            0     5574.856    17.204181    20.264252     20.98906    7317.4129    5274.5233    5618.2427    5831.8021   -434.97983    652.20447    496.87004   -2847.7439 
 3324000    249.97506   -3853.9656   -3425.5169   -3853.9656            0    4327.3221    17.349774    20.435742    21.166684    7504.7646    3685.2608     4577.369    4719.3366    1176.0587   -431.20159    253.95766   -2951.8946 
 3325000    260.06167   -3847.2597   -3401.5229   -3847.2597            0    5293.1366    17.389193    20.482173    21.214775    7556.0336    5016.4637     4113.887     6749.059   -756.67904    151.20054   -601.72608   -2818.2351 
 3326000     258.6544   -3840.2135   -3396.8887   -3840.2135            0    5162.0887    17.358546    20.446075    21.177386    7516.1538    2521.2021    5254.9948    7710.0692    191.91015    1130.3913    1701.6835   -2831.0443 
 3327000      259.098   -3888.2089   -3444.1238   -3888.2089            0     4765.981    17.394007    20.487843    21.220648    7562.3109    4673.9248     5908.676    3715.3421    1540.5523    478.43087    925.43825   -2918.4907 
 3328000    274.73585   -3816.1273   -3345.2394   -3816.1273            0    4331.6288    17.392832    20.486459    21.219215    7560.7786    5610.3228    4665.3881    2719.1755   -687.86851    386.69477    21.858856   -2867.6072 
 3329000    250.96988   -3844.5644   -3414.4106   -3844.5644            0    2073.6832    17.413692    20.511029    21.244663    7588.0145    2264.8897    2071.6232    1884.5367    1512.9247   -238.55453    1004.3849   -3184.9298 
 3330000     269.5601   -3808.2808    -3346.264   -3808.2808            0    5727.9623    17.381279     20.47285    21.205119     7545.721    5023.8858    6802.8365    5357.1646   -1014.4402    1549.8147   -276.85825   -2715.9212 
 3331000     274.2934   -3876.8021   -3406.6726   -3876.8021            0    5290.8554    17.439156    20.541022     21.27573    7621.3514     5805.548    6130.5347    3936.4835   -847.39634    656.01122    765.84088   -2818.5962 
 3332000    259.40597   -3881.2848   -3436.6718   -3881.2848            0    6241.0786    17.348181    20.433866    21.164741    7502.6975    7083.4451    6227.4304    5412.3602   -2788.4949   -401.47597   -1424.2114   -2753.7784 
 3333000     259.1443   -3871.7038   -3427.5394   -3871.7038            0    4352.0953     17.36241    20.450626      21.1821    7521.1738    5135.1047    4017.3792    3903.8019   -749.19427    1038.5647    1078.8255   -2950.1641 
 3334000    281.04773   -3833.1564   -3351.4502   -3833.1564            0    4281.5485    17.344121    20.429084    21.159787     7497.431    3760.1874    4195.9718    4888.4864   -108.33013    2707.7104   -1787.0695   -2883.2957 
 3335000    266.74626   -3856.1416   -3398.9477   -3856.1416            0    5964.9558    17.278682    20.352005    21.079952    7412.8881    5642.6206    6923.1501    5329.0968    108.22124    437.69989    -2170.044   -2754.0801 
 3336000    266.89099   -3853.1653   -3395.7233   -3853.1653            0    2698.9241     17.26288    20.333392    21.060673    7392.5684     2004.671    3288.5004     2803.601   -1624.8419   -1037.3849    275.74053   -3104.7441 
 3337000    264.36136   -3869.2354   -3416.1291   -3869.2354            0    3722.9987    17.285287    20.359784    21.088009    7421.3916    3110.9532    4578.1369     3479.906   -1535.0383   -12.849489   -1121.4339   -3013.1763 
 3338000     273.7656   -3814.5157   -3345.2908   -3814.5157            0    4965.3194    17.271627    20.343695    21.071344    7403.8111    6572.9314    4676.8903    3646.1367   -40.132588    1989.3526    165.32957   -2809.1505 
 3339000    262.43735    -3885.734   -3435.9254    -3885.734            0    3856.5057    17.264049    20.334769    21.062099    7394.0702    4253.4856    4384.9911    2931.0404   -205.61124   -480.99379    1590.0437   -3020.0594 
 3340000    260.83652   -3839.7601   -3392.6952   -3839.7601            0    6024.0838    17.203721    20.263711      20.9885    7316.8268    6369.4237    4283.4996    7419.3281   -377.12551    1489.9651    426.74479   -2749.8748 
 3341000    255.82525   -3872.5898    -3434.114   -3872.5898            0    5151.5415    17.240357    20.306863    21.033195    7363.6708    5684.7941    5493.5857    4276.2446   -673.60476   -271.30336   -749.23526   -2880.8818 
 3342000     263.0252   -3849.5609   -3398.7448   -3849.5609            0    5575.5588    17.284975    20.359418     21.08763    7420.9908    5568.6954    5985.6234    5172.3576    922.12804   -798.86639    206.76235   -2795.3157 
 3343000    244.22928   -3853.6539   -3435.0533   -3853.6539            0    4499.4072      17.2527    20.321402    21.048254     7379.498    5967.0885     4055.323    3475.8103    334.14907    288.71131    134.56919   -2950.8162 
 3344000    262.81504     -3869.81    -3419.354     -3869.81            0    4272.8416    17.299756    20.376827    21.105662    7440.0443    4625.6624    5085.0969    3107.7655    1035.6862   -721.84598   -961.66632   -2955.7276 
 3345000     265.3201   -3901.6446    -3446.895   -3901.6446            0    5698.8196    17.246006    20.313517    21.040087    7370.9114    2489.9484    6513.6506    8092.8598    889.46454    318.39102    -267.0596    -2834.288 
 3346000    270.29585   -3869.5568    -3406.279   -3869.5568            0     3980.709    17.248036    20.315909    21.042564    7373.5151    3808.3908    3996.7732    4136.9632   -456.79562    271.33741   -466.17916   -2978.2128 
 3347000    264.25125   -3866.0249   -3413.1073   -3866.0249            0    4659.2688    17.255996    20.325284    21.052275    7383.7279    2911.8964    4899.1179     6166.792    996.38233     356.0362    291.59305   -2911.3782 
 3348000    250.22048   -3875.5045   -3446.6352   -3875.5045            0    1732.6375    17.370957    20.460693    21.192527    7532.2861    704.52438    1759.0275    2734.3608    733.90555   -420.69306   -434.46847   -3256.3038 
 3349000    260.55847   -3835.8339   -3389.2456   -3835.8339            0    5327.1147    17.256837    20.326275    21.053301    7384.8077    4618.8641    6077.7788    5284.7013   -176.21747   -583.62678    418.80579   -2815.5162 
 3350000    265.69837   -3868.7942   -3413.3963   -3868.7942            0    5577.2015    17.304629    20.382567    21.111607    7446.3333    5391.1365    5382.3079      5958.16    384.87695    -1190.758    593.65759   -2807.7282 
 3351000    258.83934    -3868.579   -3424.9372    -3868.579            0    5715.0575    17.251732    20.320261    21.047073    7378.2555    5711.9694    5703.8863    5729.3168   -538.17736   -733.26829    777.24878   -2809.9725 
 3352000    264.30782   -3829.4573   -3376.4428   -3829.4573            0     6568.923    17.303226    20.380914    21.109895    7444.5216    7183.4199    7086.7174    5436.6315    49.707493    300.10784    -2113.927   -2663.2501 
 3353000    258.27121    -3819.437    -3376.769    -3819.437            0    6379.3835    17.292978    20.368844    21.097393    7431.3033    7490.4543    5934.9894    5712.7068    302.41767    247.48419    159.70358   -2685.3846 
 3354000    262.06878   -3827.3587   -3378.1817   -3827.3587            0    4387.4306    17.318186    20.398535    21.128146    7463.8479    3914.9738    5058.0272    4189.2908    1465.1985    927.23026   -136.41353   -2900.5987 
 3355000    266.10622   -3823.2333   -3367.1363   -3823.2333            0    4997.6045     17.33902    20.423076    21.153564    7490.8181    6553.1606    5144.7737    3294.8791    798.87531   -145.79672   -487.48819   -2821.1685 
 3356000     246.0551   -3831.1389   -3409.4089   -3831.1389            0    5045.2605    17.258794    20.328579    21.055688    7387.3198    4812.6282    4191.7228    6131.4303    833.82173    342.41513    275.09996   -2865.8503 
 3357000    258.08087   -3846.6569   -3404.3152   -3846.6569            0    3641.7267    17.364825    20.453471    21.185046     7524.313    4498.1968     1783.321    4643.6624    146.58956    1273.5167   -272.52726   -3004.6925 
 3358000    250.53973   -3814.8881   -3385.4715   -3814.8881            0    4262.9315    17.375892    20.466506    21.198548    7538.7085    4648.8526    2911.7908    5228.1512   -348.20658    887.27635    539.62538   -2916.7864 
 3359000    263.83152   -3860.3744   -3408.1762   -3860.3744            0    3117.5963    17.328239    20.410377    21.140411    7476.8537    3395.2821    2605.2116    3352.2953    613.13837    1052.7732    740.82554   -3068.2265 
 3360000    261.14266   -3876.5327   -3428.9431   -3876.5327            0    2982.8365    17.378714     20.46983    21.201991     7542.382    3884.2199    1237.6266     3826.663    1404.0873    736.66761    168.63823   -3100.8374 
 3361000      267.846   -3875.6766   -3416.5977   -3875.6766            0    6424.2814    17.281213    20.354987     21.08304    7416.1464    7877.5931    5703.8889    5691.3623    157.50781    519.73642   -359.68799   -2721.7674 
 3362000    272.65538   -3868.3229   -3401.0009   -3868.3229            0    5454.4882    17.223888    20.287465    21.013103    7342.5883    4554.0424    6114.7472     5694.675    328.83309   -713.07646    875.34617   -2816.9119 
 3363000    263.13018   -3852.4112   -3401.4151   -3852.4112            0    5943.9186    17.265349    20.336301    21.063686    7395.7411    6280.4791    5077.3277    6473.9489   -397.20664    981.97688   -1108.1113   -2760.3082 
 3364000    265.42948   -3815.1917   -3360.2547   -3815.1917            0    4347.9166    17.246675    20.314305    21.040904    7371.7696    3249.9166    7350.6312    2443.2018     856.1002    498.13656    362.51902   -2892.8115 
 3365000    273.30219   -3850.3052   -3381.8746   -3850.3052            0    5024.6572    17.267369    20.338679    21.066149    7398.3362    5731.7972    2731.2484    6610.9259   -600.44489    497.61268    509.46243   -2839.7285 
 3366000    259.90329   -3880.3062   -3434.8409   -3880.3062            0      1403.21     17.29793    20.374677    21.103435    7437.6892     2253.541    2080.6865   -124.59758    227.14824   -907.26653    920.43222   -3282.6332 
 3367000     250.9096   -3892.8177   -3462.7673   -3892.8177            0    5294.1149    17.279029    20.352414    21.080375    7413.3349    4770.6164    5722.6487    5389.0797   -19.311664    310.01966    998.36954   -2890.3893 
 3368000    266.00437   -3881.5732   -3425.6509   -3881.5732            0    4398.7653    17.311416    20.390561    21.119887    7455.0976    5648.2919    3953.0896    3594.9145    853.94823    592.42372    2467.1584   -2947.3953 
 3369000    257.95821   -3848.9562   -3406.8247   -3848.9562            0    5168.9172    17.311018    20.390093    21.119402    7454.5842    6022.2571    4631.3525    4853.1419    389.92188   -1291.2017    385.38591   -2844.8731 
 3370000    261.67991    -3882.583   -3434.0725    -3882.583            0    4222.6508    17.312444    20.391772    21.121141    7456.4265    4709.1025    2905.2391    5053.6108    396.51079   -812.99718   -654.24751   -2974.8832 
 3371000    257.31379   -3862.8665   -3421.8395   -3862.8665            0    8213.1359    17.217546    20.279995    21.005366    7334.4808    7899.7355     7574.006    9165.6662   -98.551645   -168.70184    1544.7068   -2543.3142 
 3372000    274.00635   -3858.8169   -3389.1794   -3858.8169            0    3805.0079    17.348965    20.434789    21.165697    7503.7148    2877.8952    5560.3343    2976.7942   -602.09125    1009.1425    576.40512   -2972.7822 
 3373000    260.43381   -3899.3929   -3453.0182   -3899.3929            0    6050.1345    17.198208    20.257217    20.981773    7309.7944     5899.905    4337.7638    7912.7345    1732.4024    253.29383   -972.97984   -2808.0385 
 3374000    271.23924   -3853.5882   -3388.6934   -3853.5882            0    3811.0905    17.320759    20.401567    21.131286    7467.1758    4129.5717    3445.5025    3858.1973   -1346.7786    302.69951   -99.398859   -2973.6615 
 3375000    274.61349   -3836.7135   -3366.0354   -3836.7135            0    4495.1714    17.297948    20.374698    21.103456     7437.712     4714.327    3895.3303    4875.8568    685.34081    447.64382   -3.7143682   -2878.4378 
 3376000    258.49758   -3858.0512   -3414.9952   -3858.0512            0    5341.2195    17.372121    20.462063    21.193947    7533.8003    5197.2817    5277.4091    5548.9676   -521.85341   -1338.5212   -186.67451   -2828.1407 
 3377000    260.58705   -3845.0932   -3398.4559   -3845.0932            0    2415.9906    17.467142    20.573986    21.309872    7658.1015    2433.6633    1924.7948    2889.5138   -915.36933    -828.1561    212.12337   -3128.6246 
 3378000    274.55478   -3860.1871   -3389.6096   -3860.1871            0    4891.2616    17.365488    20.454251    21.185855    7525.1742    4748.7467    4169.4959    5755.5422   -477.50469    999.35031    350.54637   -2852.8086 
 3379000    273.80904   -3850.3746   -3381.0753   -3850.3746            0    4532.2808    17.369781    20.459308    21.191093    7530.7572      4093.08    4280.1557    5223.6066    736.03964    793.98446    1040.6835   -2883.3023 
 3380000    252.85219   -3871.5888   -3438.2088   -3871.5888            0    4186.6486    17.397186    20.491587    21.224526    7566.4577     4222.764    3825.3629    4511.8189    318.34126   -1046.3446   -472.02641   -2976.2162 
 3381000    256.64022   -3879.6103   -3439.7378   -3879.6103            0    5492.9021    17.269355     20.34102    21.068573    7400.8903    8329.4119    3686.1984    4463.0961   -459.18645   -130.80104   -1030.6129   -2846.8647 
 3382000    264.03454   -3821.6803   -3369.1342   -3821.6803            0    5352.1685    17.361031    20.449002    21.180418    7519.3819    5089.4517    5420.0914    5546.9626   -653.13475    1971.0852   -252.73252   -2782.2021 
 3383000    265.38561   -3877.5687   -3422.7068   -3877.5687            0    4512.5372    17.318477    20.398879    21.128502    7464.2246    6333.6151    4214.3372    2989.6593   -2347.0507   -797.93255     1395.161   -2931.4808 
 3384000    243.56021    -3827.513   -3410.0591    -3827.513            0    3532.8075    17.288088    20.363085    21.091427    7425.0009    3686.4104    2066.4852     4845.527   -714.47008    -219.3122    1017.2827   -3027.5054 
 3385000    249.87659    -3880.435   -3452.1551    -3880.435            0    5505.7624    17.187624    20.244751    20.968862     7296.308    4190.7505    5505.6602    6820.8764    871.13547    18.123932    775.46806   -2866.2915 
 3386000    265.27179   -3848.9508   -3394.2841   -3848.9508            0    4580.3524    17.273985    20.346473    21.074221    7406.8442    4247.9135    5348.8941    4144.2495    274.35332   -728.55901   -384.47822   -2899.5088 
 3387000    261.70112   -3871.4631   -3422.9163   -3871.4631            0    5288.5746    17.281001    20.354736    21.082781    7415.8725    5728.6289    4375.6254    5761.4694   -1012.4422   -612.64409    110.76828   -2850.9417 
 3388000    264.94456    -3846.248   -3392.1421    -3846.248            0    5068.1093    17.311028    20.390105    21.119414    7454.5974    5896.6735    5514.2253     3793.429   -945.32263    435.57376   -276.61593   -2841.1491 
 3389000    249.39664   -3895.3356   -3467.8783   -3895.3356            0    5258.2611    17.288625    20.363716    21.092082    7425.6919    5401.8208    4626.4787    5746.4836    267.87698   -695.80812     1177.357   -2898.4291 
 3390000    269.86581   -3897.5635   -3435.0227   -3897.5635            0    3600.8715    17.315459    20.395324     21.12482     7460.323    3028.7905    3331.3528    4442.4713    700.84942    746.68441    70.459123   -3043.2437 
 3391000    255.57699   -3885.4364   -3447.3862   -3885.4364            0    1552.3051     17.31322    20.392686    21.122088    7457.4289    230.39813    2165.1741     2261.343    863.04292   -1219.6162    634.93878   -3278.5591 
 3392000    266.59518    -3891.632   -3434.6969    -3891.632            0       3325.6    17.196758    20.255509    20.980005    7307.9459    4748.8246    1912.2452    3315.7302   -29.868847    571.21721    141.48511   -3080.2582 
 3393000    258.52383   -3854.2944   -3411.1934   -3854.2944            0    5101.7807    17.269908     20.34167    21.069247    7401.6007    6673.7979    3235.4395    5396.1048   -355.20045   -374.24215   -276.65352   -2860.4829 
 3394000       260.75   -3847.5364   -3400.6198   -3847.5364            0    5938.6186     17.17115    20.225347    20.948763    7275.3477    5423.6153    6171.7873     6220.453   -694.05763   -354.81758   -537.84803   -2770.5117 
 3395000    277.88097   -3859.3181   -3383.0396   -3859.3181            0    5971.3169    17.210199    20.271341    20.996403    7325.0953     6877.209    5239.7098    5797.0321    1019.8506    2987.8913   -68.653569   -2745.1298 
 3396000     257.3922   -3889.5879   -3448.4264   -3889.5879            0    3744.2733      17.2064    20.266866    20.991768     7320.245    3199.7113     4831.191    3201.9177   -1155.5408   -715.77034   -926.60705   -3048.6943 
 3397000    240.89262   -3867.6084   -3454.7267   -3867.6084            0    4607.3417    17.244539    20.311789    21.038297    7369.0299    4042.7114    4880.4366    4898.8772    1077.9049   -79.112997   -335.15227   -2959.5769 
 3398000    252.19204   -3880.8394   -3448.5908   -3880.8394            0    3808.0322    17.236553    20.302383    21.028555    7358.7977    2743.7529    5171.9155    3508.4282   -906.23919    348.17089   -1608.5113   -3039.9108 
 3399000    274.25904   -3840.4185   -3370.3479   -3840.4185            0    3278.7675    17.389326    20.482329    21.214937    7556.2072    2664.7682    3313.0959    3858.4384   -170.75136     102.2076   -706.51194   -3009.0293 
 3400000    253.74165    -3845.629   -3410.7245    -3845.629            0    5077.0672    17.334102    20.417282    21.147563    7484.4449    3883.6171    6195.2452    5152.3392    725.51822   -467.18909    1994.3014   -2856.5477 
 3401000    270.12137   -3845.1316   -3382.1528   -3845.1316            0    6434.2301    17.325055    20.406626    21.136527     7472.733    6839.3271     5915.415    6547.9481   -296.64002    463.40405   -128.89745   -2680.9366 
 3402000     249.2935   -3869.9411   -3442.6605   -3869.9411            0    5903.4815    17.280681    20.354359     21.08239    7415.4607    5478.7756    6534.1298    5697.5389    1400.1073   -1199.9355   -547.45313   -2804.2174 
 3403000      270.374   -3874.5207   -3411.1089   -3874.5207            0    5117.7246    17.342112    20.426717    21.157336    7494.8255    4539.9836    4570.5868    6242.6036    253.77175   -1259.8981    1495.5635   -2851.7194 
 3404000    263.00687   -3896.9869   -3446.2022   -3896.9869            0    5142.2563    17.387184    20.479806    21.212324    7553.4152    5792.5946    5837.5663    3796.6079    354.66608   -178.11571    963.72369   -2879.7373 
 3405000    263.42112    -3864.732   -3413.2372    -3864.732            0    5668.7574    17.321944    20.402962    21.132732    7468.7084    4522.7036    5729.5203    6754.0483    351.82859   -1382.9743     533.5048   -2795.7766 
 3406000    232.64036   -3841.2049   -3442.4673   -3841.2049            0    5388.0088    17.336107    20.419644     21.15001    7487.0425    3701.4384    5220.7348    7241.8533    1812.7949   -73.571352    14.265298   -2854.1461 
 3407000    255.41587   -3841.8988   -3404.1248   -3841.8988            0    5250.1123    17.325068    20.406642    21.136542    7472.7496    5970.9844     6302.079    3477.2734    468.39512   -271.30495    3.0558357    -2831.955 
 3408000    267.46771   -3850.6031   -3392.1726   -3850.6031            0    3062.0232    17.241678     20.30842    21.034807     7365.364    3500.4675    2067.2086    3618.3933    453.17333    -410.9531   -681.40097   -3063.2615 
 3409000    259.40376   -3866.9999   -3422.3907   -3866.9999            0    5853.2088    17.277658    20.350799    21.078702    7411.5697    6699.3213    6450.2291    4410.0759   -1208.4303   -2690.1334   -747.98014   -2789.7166 
 3410000    266.57688   -3852.7104   -3395.8068   -3852.7104            0    4306.0474    17.382295    20.474047    21.206359    7547.0447    4648.2714    4429.0125    3840.8582    500.18713    569.69286    387.53485   -2921.8578 
 3411000    252.49514   -3894.9927   -3462.2246   -3894.9927            0    5108.6854    17.328988    20.411259    21.141325    7477.8231    4811.4392    5564.5169    4950.1002    458.52347    403.16214   -1897.1183   -2905.0899 
 3412000      268.551   -3895.6508   -3435.3636   -3895.6508            0    4484.7122    17.287322    20.362181    21.090492    7424.0129    5781.3914    3426.0858    4246.6593    1205.1385    872.95913    -649.1539   -2949.7966 
 3413000    258.87118   -3850.4917   -3406.7954   -3850.4917            0     3823.172    17.351317     20.43756    21.168567    7506.7674    4328.6307    3669.4547    3471.4307   -339.74811   -22.154375    289.80425   -2988.2402 
 3414000    258.35642   -3835.2442   -3392.4301   -3835.2442            0    6159.1489    17.315371    20.395219    21.124712    7460.2084     5939.658    4991.0637    7546.7248   -773.45763    1551.5699   -1258.2685   -2722.3179 
 3415000    262.62404   -3836.0262   -3385.8976   -3836.0262            0    3959.9908    17.379812    20.471123     21.20333    7543.8116    5151.1306     3106.239    3622.6029    50.818458    1686.8347    143.95398   -2950.2243 
 3416000    279.14953   -3854.1849   -3375.7321   -3854.1849            0    5663.2732    17.363404    20.451796    21.183312    7522.4651    5770.0185    6419.4843    4800.3168   -728.95998   -763.08137   -711.97839    -2754.429 
 3417000    256.41336   -3872.1678   -3432.6841   -3872.1678            0    5698.4332    17.286271    20.360944     21.08921    7422.6594    4454.4386    6977.0741    5663.7868    782.70629   -422.86009   -1579.0685    -2815.818 
 3418000    276.75002   -3839.6104   -3365.2704   -3839.6104            0     4558.368    17.341482    20.425975    21.156568    7494.0094    3299.8106    4481.5169    5893.7766    712.39967    876.96167    805.63317   -2867.0752 
 3419000    270.33072   -3826.6899   -3363.3523   -3826.6899            0    3861.6888    17.339692    20.423867    21.154383    7491.6885     3031.914    5535.2425      3017.91   -652.10133    235.55975   -342.32238   -2941.4296 
 3420000    260.78654   -3817.9185   -3370.9393   -3817.9185            0    3159.1785    17.366587    20.455546    21.187196    7526.6034    3847.0294    3284.6494    2345.8567   -493.65722    305.51192   -716.64867   -3024.1633 
 3421000    260.47521   -3847.5529   -3401.1073   -3847.5529            0    4487.7529    17.372164    20.462115       21.194    7533.8572    3239.3456    4571.2785    5652.6345    752.40744   -274.41866   -465.76209   -2908.0219 
 3422000    253.33949   -3840.9644   -3406.7492   -3840.9644            0     4931.065    17.301147    20.378466    21.107359    7441.8394    6666.9581    4198.8596    3927.3772    170.59367    1040.4827   -442.27893   -2871.5729 
 3423000    255.34311   -3838.3919   -3400.7425   -3838.3919            0    5901.3278    17.270452    20.342311    21.069911    7402.3001    5196.5953    5221.1082    7286.2799   -308.26764    1293.6985   -809.61651    -2763.665 
 3424000    252.42438   -3842.8022   -3410.1554   -3842.8022            0     3804.981    17.336763    20.420417     21.15081    7487.8931     2712.283    3846.3687    4856.2912   -12.434508    572.80257    -130.2462   -2994.6392 
 3425000    268.69541   -3847.1859   -3386.6512   -3847.1859            0    4768.0308    17.257485    20.327038    21.054091    7385.6393    2777.2338    3982.5461    7544.3125   -323.22047    25.578145    299.77351   -2873.0772 
 3426000    253.98078   -3855.6848   -3420.3704   -3855.6848            0    5668.7798    17.254363     20.32336    21.050283    7381.6318    5849.1568    5626.8631    5530.3196    423.85507    498.45014       201.32   -2810.1063 
 3427000    280.26875   -3858.4471   -3378.0761   -3858.4471            0    7657.4993    17.163781    20.216666    20.939772    7265.9844    8132.9426    6879.6482    7959.9072   -1329.3958   -543.21215   -1340.4754   -2566.6344 
 3428000    264.46188   -3864.2535   -3410.9749   -3864.2535            0    3427.9935    17.369102    20.458507    21.190263    7529.8731    3569.9193    3082.9885    3631.0725    306.20137    687.01178   -572.48063   -3034.5281 
 3429000    252.30404   -3871.8598   -3439.4193   -3871.8598            0    4726.1955    17.239493    20.305845    21.032141    7362.5632    5321.2578    5488.1486    3369.1803   -564.39785    749.40048    2390.3649    -2931.942 
 3430000    269.94068   -3880.7092   -3418.0401   -3880.7092            0    4499.5062     17.26535    20.336301    21.063686    7395.7417    3148.7669    5123.1393    5226.6123   -200.18071    462.24694    440.07515   -2932.7265 
 3431000    278.50487   -3876.9172   -3399.5694   -3876.9172            0    6893.1341    17.275152    20.347847    21.075645    7408.3452    5102.6849    8975.0922    6601.6253    352.05178    855.36441   -635.50244   -2654.8137 
 3432000    264.23603   -3819.2611   -3366.3696   -3819.2611            0    4775.2068    17.325501    20.407151    21.137071    7473.3097    5195.0399    4444.4579    4686.1227   -846.02741   -159.29209    93.629735   -2845.9172 
 3433000    262.92499   -3861.8486   -3411.2042   -3861.8486            0    5883.1334    17.198936    20.258074    20.982661    7310.7226    5762.8647    4720.4187    7166.1167     677.5575   -326.57356    58.871252   -2783.9481 
 3434000    266.25434   -3886.8519   -3430.5011   -3886.8519            0    6283.2771    17.235044    20.300605    21.026714     7356.865     6619.903    4493.4578    7736.4706    224.59917   -325.94688    196.90097   -2756.3536 
 3435000    267.81615   -3847.8973   -3388.8696   -3847.8973            0    4301.2173    17.301929    20.379387    21.108313    7442.8486    4292.9558    4835.4087    3775.2873    461.02034    431.17095    282.05371   -2921.9883 
 3436000    266.12613   -3842.7633   -3386.6323   -3842.7633            0    4589.3001    17.270308    20.342142    21.069736    7402.1153    5254.0277    4851.8448    3662.0277   -650.04702     551.0134   -2549.3755   -2891.2069 
 3437000    253.67536   -3840.1144   -3405.3236   -3840.1144            0    6260.1514    17.192624     20.25064    20.974961    7302.6766    8340.9246    5773.3059    4666.2238    479.40494   -104.69715    421.30648   -2738.6046 
 3438000    274.96875     -3852.77   -3381.4829     -3852.77            0    5580.6344    17.223998    20.287594    21.013237    7342.7284    5519.5048    6324.5218    4897.8766   -458.15972    314.68563    145.35143   -2783.8742 
 3439000    263.43897   -3867.9847   -3416.4593   -3867.9847            0    5170.7348    17.250821    20.319189    21.045962    7377.0873    6000.3346    3461.2509    6050.6189   -1811.9453   -186.37633   -1613.6082   -2860.1541 
 3440000    275.14458    -3826.762   -3355.1736    -3826.762            0    3797.5967    17.280488    20.354132    21.082155     7415.212    4326.4832    1665.6767    5400.6304   -12.909463    2433.5186   -865.84942   -2944.4891 
 3441000    259.65317   -3821.2445   -3376.2078   -3821.2445            0    5993.2284    17.288899     20.36404    21.092417    7426.0458    7099.5553    5551.8996    5328.2304   -1234.9644   -12.877256    1281.2785   -2727.1336 
 3442000    258.50803   -3829.6176   -3386.5437   -3829.6176            0    4791.4925    17.313766    20.393329    21.122754    7458.1347    4764.0616    4667.9991    4942.4168    1756.5629    343.73425   -1659.0511   -2865.3767 
 3443000    270.91305   -3813.2947    -3348.959   -3813.2947            0     4045.848    17.306349    20.384593    21.113705    7448.5533    5666.7299      3540.85    2929.9642   -1247.6072    789.58203    501.89404   -2909.4605 
 3444000     267.5605   -3811.3679   -3352.7783   -3811.3679            0    3830.7047    17.324867    20.406405    21.136297    7472.4894    4340.7807    2475.2858    4676.0476   -1156.2099   -87.171353    724.45798   -2935.3135 
 3445000    261.45458   -3874.9342     -3426.81   -3874.9342            0    4259.6244     17.34174    20.426279    21.156882    7494.3437    5429.1666    3203.8425    4145.8643    569.77685   -654.50943   -253.27513   -2961.2445 
 3446000    261.00373   -3863.7099   -3416.3584   -3863.7099            0    3710.8158    17.377332    20.468202    21.200305    7540.5825    2925.8981    4875.4837    3331.0656    283.91034   -340.41355   -351.15628   -3008.2739 
 3447000    258.76543   -3843.8177   -3400.3027   -3843.8177            0    4508.8687    17.360182    20.448001    21.179381    7518.2783    5822.8464    4040.8297      3662.93   -729.96561    165.28339   -48.927919   -2905.9215 
 3448000    262.36008   -3838.8263   -3389.1501   -3838.8263            0    3387.6212    17.441622    20.543927    21.278739    7624.5854    4119.0044    4045.9882    1997.8711   -994.37666    -471.7447   -855.54592   -3012.4576 
 3449000    281.53773    -3845.991    -3363.445    -3845.991            0    4088.6572    17.442007     20.54438    21.279208    7625.0894    3744.8853    3839.2349    4681.8515    1037.1665    69.810475   -444.16217   -2908.7695 
 3450000    263.81086   -3857.5033   -3405.3405   -3857.5033            0    6199.7991    17.336355    20.419937    21.150313    7487.3647    5819.6984    7380.4666    5399.2321    523.15799   -1306.2351    5.5629478   -2728.3502 
 3451000    255.12505   -3851.6776    -3414.402   -3851.6776            0    4261.1358    17.318878    20.399351    21.128991     7464.743    3464.0465    4568.9913    4750.3696   -537.28419    20.612342   -446.05737   -2950.5108 
 3452000    250.49812   -3856.7718   -3427.4265   -3856.7718            0    4783.5518    17.241889    20.308668    21.035064    7365.6338    5983.3732    4478.6297    3888.6526    396.97707    648.74101   -791.30451   -2913.5764 
 3453000    247.79502   -3875.6507   -3450.9386   -3875.6507            0    3521.9769    17.346562    20.431959    21.162765    7500.5971    1669.5877    3421.3779    5474.9652   -540.32733    594.19909   -544.60267   -3065.6747 
 3454000    252.25069   -3881.0496   -3448.7006   -3881.0496            0    3967.3587    17.301006    20.378299    21.107186    7441.6567    4320.0888    2571.0222     5010.965    890.05889   -1343.2615    164.12884   -3018.1274 
 3455000    247.95888   -3872.0078   -3447.0148   -3872.0078            0    6322.5693    17.240478    20.307005    21.033342    7363.8251    6214.3207    4666.1268    8087.2603    602.62791   -835.30951   -538.96253   -2768.0098 
 3456000    254.10046   -3869.4175    -3433.898   -3869.4175            0    4231.8143      17.2928    20.368634    21.097175    7431.0729    4211.7926    5352.4966    3131.1535     57.41911     793.7197    20.997615   -2975.2769 
 3457000    261.69155   -3879.1248   -3430.5945   -3879.1248            0    5141.1893    17.363485    20.451892    21.183411    7522.5711    5314.1731    6536.7857    3572.6093     316.8553   -142.73664    514.33013   -2866.5598 
 3458000     270.2606   -3864.1814    -3400.964   -3864.1814            0    6605.2122    17.319436    20.400008    21.129671    7465.4642    7399.9772    6118.7044     6296.955   -1248.2274    -89.33878   -658.09343    -2681.814 
 3459000    258.14834   -3855.5255   -3413.0681   -3855.5255            0    4837.7789    17.381048    20.472579    21.204838     7545.421    5616.2088    3264.9632    5632.1648    576.72489    450.03376    347.74537   -2880.7081 
 3460000    257.05947   -3835.9314   -3395.3402   -3835.9314            0      4597.42    17.351674    20.437981    21.169002    7507.2307     4861.139    3182.0451    5749.0758    -1280.157   -488.02396   -739.77531   -2891.9905 
 3461000    253.96561   -3866.8242   -3431.5359   -3866.8242            0    4744.1754    17.377906    20.468878    21.201005    7541.3293    5639.5043    3039.4085    5553.6135    552.47897    420.04779    705.16302   -2909.7594 
 3462000    253.47596   -3852.1349   -3417.6857   -3852.1349            0    5661.8429    17.253116    20.321892    21.048762    7380.0318    5665.4219    6232.0317     5088.075   -322.28245    482.48868   -210.39188   -2808.3005 
 3463000    273.10883   -3847.4199   -3379.3207   -3847.4199            0    4969.5605    17.310129    20.389045    21.118317    7453.4352     5753.489    3585.9365     5569.256   -42.198816    586.55103    117.93295   -2839.1259 
 3464000    264.65902   -3887.3011   -3433.6846   -3887.3011            0    3744.3464    17.389555    20.482599    21.215217    7556.5057    3449.1948    3934.9392    3848.9053    445.05527   -1518.4781   -1670.6638   -3021.0431 
 3465000    258.88884    -3936.443   -3492.7164    -3936.443            0    5017.9099    17.241345    20.308027      21.0344    7364.9362    5128.5506      5043.67     4881.509      -216.66   -623.68624   -88.144414   -2953.7425 
 3466000    263.36457   -3892.6147   -3441.2168   -3892.6147            0    3815.1005    17.359763    20.447508    21.178871    7517.7348    4330.2319     5492.453    1622.6167    659.12437   -219.32991    1316.3566   -3022.9351 
 3467000    271.75211   -3925.9255   -3460.1517   -3925.9255            0    5506.4356    17.290451    20.365867     21.09431    7428.0452    6851.5483    4687.7912    4979.9671    242.68632   -378.26437    701.56531   -2863.6372 
 3468000    272.78227   -3876.9275    -3409.388   -3876.9275            0    3564.0562    17.403515    20.499041    21.232247    7574.7181    2960.3981    2757.7549    4974.0157   -228.83786    980.10755    297.58407   -3015.6685 
 3469000    261.93914   -3838.5081   -3389.5534   -3838.5081            0    3706.1035    17.347985    20.433635    21.164502    7502.4433    3271.6747    4133.0601    3713.5757   -138.82914     -374.154    790.50359   -2984.0484 
 3470000    258.99803     -3878.97   -3435.0562     -3878.97            0    6299.1426    17.327067    20.408996    21.138981    7475.3362    5928.9908    4724.0536    8244.3836   -172.49469    86.568452    1377.8194    -2748.323 
 3471000    269.52892   -3875.4324   -3413.4691   -3875.4324            0    5701.7908    17.375899    20.466514    21.198556    7538.7172     6327.774    4835.4006    5942.1979   -654.31145   -247.02913    969.83342   -2786.5888 
 3472000    255.28741   -3878.6161   -3441.0622   -3878.6161            0     4736.211     17.36954    20.459024    21.190799    7530.4438    4094.7447    4998.4834     5115.405    1177.6085    822.00088    1983.1476   -2920.9135 
 3473000    261.26147   -3894.3551   -3446.5618   -3894.3551            0    3643.6676    17.391758    20.485194    21.217904    7559.3779    4198.9199    3575.1001    3156.9828   -154.60324    59.936597   -1508.7789   -3044.8629 
 3474000    264.10095   -3867.9269   -3415.2669   -3867.9269            0    5069.4845    17.333024    20.416013    21.146249    7483.0495    5086.3622    5843.8413    4278.2501    331.37013    769.34024    401.96192   -2862.0209 
 3475000    259.38123   -3881.1154   -3436.5449   -3881.1154            0     3673.197    17.257503    20.327059    21.054114    7385.6628    3119.8889    2658.8028    5240.8994    1450.8571   -1182.4825    637.74266   -3040.8963 
 3476000    266.97791   -3847.0628   -3389.4718   -3847.0628            0    2887.7117    17.308184    20.386755    21.115944    7450.9236    4045.0521    2307.9083    2310.1746   -1747.6242    983.23882     556.6166   -3075.6813 
 3477000    276.28039   -3832.9674   -3359.4322   -3832.9674            0    3845.3708    17.376688    20.467443    21.199519     7539.744     3609.096    3705.1155    4221.9009   -187.93026   -438.05806    682.09757   -2936.5974 
 3478000     261.0902   -3826.2509   -3378.7512   -3826.2509            0    6676.7171    17.294177    20.370257    21.098856    7432.8491     7274.178    7199.0881    5556.8851    1909.1147   -978.63573    -408.2616   -2654.9919 
 3479000    264.76642   -3842.0952   -3388.2946   -3842.0952            0    3621.3641    17.356739    20.443946    21.175181     7513.806    4691.2932     1269.012     4903.787    87.543826    131.44912    1164.3228   -2991.4614 
 3480000    269.98206   -3817.7481   -3355.0081   -3817.7481            0    4941.9957    17.287551    20.362451    21.090771    7424.3082    3325.4241    6046.5279    5454.0351    149.95547     1019.261   -736.91243    -2819.909 
 3481000    263.19888   -3827.4526   -3376.3387   -3827.4526            0    5040.1477    17.346708    20.432131    21.162943    7500.7865    4905.1358    5081.1435    5134.1639   -85.888611   -735.40251   -83.705163   -2824.9905 
 3482000    258.84042   -3869.3016   -3425.6579   -3869.3016            0    3597.5569    17.356539     20.44371    21.174937    7513.5465    3389.5074    2833.2506    4569.9128      428.639   -1361.7633   -505.94796   -3031.4471 
 3483000    260.70298   -3872.2945   -3425.4585   -3872.2945            0    6169.0274     17.25722    20.326725    21.053768     7385.299    6066.5251    7294.4651    5146.0919   -529.26493    188.70115   -1400.7175    -2761.011 
 3484000    263.85837   -3851.0655   -3398.8213   -3851.0655            0     3661.255    17.369239     20.45867    21.190432    7530.0524    3704.9554    2601.1354    4677.6743    350.15601    237.47419   -2105.3305   -2996.7493 
 3485000    263.12178   -3872.6812   -3421.6995   -3872.6812            0    5407.7528    17.310688    20.389704    21.118999    7454.1582    4572.2427    5696.1352    5954.8806    825.85069   -322.42786   -606.48953   -2833.8159 
 3486000    255.34355   -3866.9028   -3429.2527   -3866.9028            0    4609.5179    17.313834    20.393409    21.122837    7458.2223    4291.6525    6212.9403    3323.9608   -542.16281    597.77252    1810.4586   -2927.8731 
 3487000    266.44787   -3893.3112   -3436.6287   -3893.3112            0    5115.8331    17.289517    20.364768    21.093171    7426.8421    6122.9776    5893.2598    3331.2618    1108.1175    -420.4218   -453.90906   -2882.5181 
 3488000     257.6342   -3863.6873   -3422.1111   -3863.6873            0    4169.9694    17.296424    20.372903    21.101597    7435.7464    4132.9988    4768.9101    3607.9993    1789.6613    215.86356    -838.1584   -2969.9082 
 3489000    271.38872    -3896.957    -3431.806    -3896.957            0    3711.5358    17.220386     20.28334     21.00883    7338.1098    5148.9404    3327.6944    2657.9726    381.40272    1052.6143    768.40088   -3034.6019 
 3490000    263.36854   -3865.6635   -3414.2588   -3865.6635            0    5244.2681    17.256188     20.32551    21.052509    7383.9741    4245.2061    6079.9194    5407.6787    1137.9496    -1200.862    958.32847   -2849.5157 
 3491000    268.58402   -3912.7624   -3452.4185   -3912.7624            0     3923.489     17.31387    20.393451     21.12288    7458.2685    3294.1828    4067.0621     4409.222    590.80389    825.55658    -1890.249   -3025.6559 
 3492000    266.96301   -3838.1252   -3380.5597   -3838.1252            0    4730.4707    17.281594    20.355435    21.083504    7416.6365    3660.3512    4116.4214    6414.6394   -256.45617    1232.8206   -826.67439   -2868.8929 
 3493000    265.05952   -3821.9577   -3367.6548   -3821.9577            0    4247.0087    17.313771    20.393336    21.122761    7458.1418    5382.2677    4997.3008    2361.4576   -229.83679   -14.535406   -223.45215   -2905.7104 
 3494000    264.70015   -3849.8311   -3396.1441   -3849.8311            0    4030.3748    17.364446    20.453024    21.184584    7523.8203    4016.8443    5154.9161     2919.364   -1022.0477    615.92243   -445.31179   -2953.9024 
 3495000    270.60314   -3832.5194   -3368.7148   -3832.5194            0    5022.5664    17.327749    20.409799    21.139813    7476.2189     5044.426    5028.6977    4994.5754   -382.03761    1.9723821   -66.775851   -2821.0894 
 3496000    251.58851   -3838.2348   -3407.0207   -3838.2348            0    5721.3639    17.289182    20.364373    21.092762    7426.4099    6369.1324    5376.3654     5418.594   -2968.2972   -1091.4083   -675.10293   -2787.3594 
 3497000    255.63123   -3863.3913   -3425.2481   -3863.3913            0    4692.8149    17.296849    20.373403    21.102115    7436.2937    4009.4626    3346.2901     6722.692    450.84921   -454.70533   -1608.6491    -2916.309 
 3498000    268.69939   -3841.2985   -3380.7569   -3841.2985            0    3881.4024    17.365366    20.454108    21.185706     7525.016    4423.3994    3533.6425    3687.1654    333.24128   -451.80884    340.19847   -2954.7938 
 3499000    256.29633   -3871.4482   -3432.1651   -3871.4482            0    5429.0327    17.367677    20.456829    21.188525    7528.0201    5408.1836     4305.237    6573.6776    287.53522    -1420.806     698.3213     -2836.12 
 3500000    268.25258   -3830.2364   -3370.4607   -3830.2364            0    3932.0798    17.381833    20.473503    21.205795    7546.4426    2795.6911    5084.4277    3916.1205   -254.95702   -1803.2365     -56.7193   -2937.7073 
Loop time of 470.517 on 64 procs for 250000 steps with 864 atoms

Performance: 91.814 ns/day, 0.261 hours/ns, 531.331 timesteps/s
99.1% CPU use with 64 MPI tasks x 1 OpenMP threads

MPI task timing breakdown:
Section |  min time  |  avg time  |  max time  |%varavg| %total
---------------------------------------------------------------
Pair    | 20.736     | 25.381     | 30.689     |  48.1 |  5.39
Bond    | 0.26939    | 0.28025    | 0.29204    |   0.9 |  0.06
Kspace  | 211.38     | 221.79     | 232.28     |  34.5 | 47.14
Neigh   | 5.6675     | 6.6231     | 7.6896     |  21.4 |  1.41
Comm    | 86.677     | 98.932     | 108.06     |  50.7 | 21.03
Output  | 1.4083     | 1.41       | 1.4209     |   0.2 |  0.30
Modify  | 106.69     | 109.75     | 115.35     |  19.8 | 23.32
Other   |            | 6.355      |            |       |  1.35

Nlocal:        13.5000 ave          18 max           9 min
Histogram: 1 5 8 10 6 12 11 4 4 3
Nghost:        2132.39 ave        2168 max        2097 min
Histogram: 7 6 5 8 6 5 4 15 5 3
Neighs:        4093.78 ave        6009 max        2096 min
Histogram: 1 2 8 8 15 8 10 7 2 3

Total # of neighbors = 262002
Ave neighs/atom = 303.24306
Ave special neighs/atom = 2.0000000
Neighbor list builds = 14372
Dangerous builds = 0

unfix		3
unfix		2
unfix		1

write_data	data.final.${pid}
write_data	data.final.0
System init for write_data ...
PPPM initialization ...
  extracting TIP4P info from pair style
  using 12-bit tables for long-range coulomb (../kspace.cpp:340)
  G vector (1/distance) = 0.37387096
  grid = 24 24 25
  stencil order = 5
  estimated absolute RMS force accuracy = 0.0031154818
  estimated relative force accuracy = 9.3821808e-06
  using double precision FFTW3
  3d grid and FFT values/proc = 2730 288
Last active /omp style is kspace_style pppm/tip4p/omp
WARNING: Not all mixed pair coeffs generated from mixing. Use write_data with 'pair ij' option to store all pair coeffs. (../write_data.cpp:312)

write_restart   restart.lmp.${pid}
write_restart   restart.lmp.0
System init for write_restart ...
PPPM initialization ...
  extracting TIP4P info from pair style
  using 12-bit tables for long-range coulomb (../kspace.cpp:340)
  G vector (1/distance) = 0.37387096
  grid = 24 24 25
  stencil order = 5
  estimated absolute RMS force accuracy = 0.0031154818
  estimated relative force accuracy = 9.3821808e-06
  using double precision FFTW3
  3d grid and FFT values/proc = 2730 288
Last active /omp style is kspace_style pppm/tip4p/omp
Total wall time: 0:07:52
