LAMMPS data file via write_data, version 30 Jul 2021, timestep = 7500000

972 atoms
2 atom types
648 bonds
1 bond types
324 angles
1 angle types

0.0534187355308422 19.946582264460304 xlo xhi
0.15186985367756733 19.84813114630922 ylo yhi
-0.027396691526044847 20.727394691526182 zlo zhi

Masses

1 1.008
2 15.999

Pair Coeffs # lj/cut/tip4p/long/omp

1 0 0
2 0.21084 3.1668

Bond Coeffs # harmonic/omp

1 450 0.9572

Angle Coeffs # harmonic/omp

1 55 104.52

Atoms # full

10 4 2 -1.1794 1.3292923854813055 4.0891411404324245 3.7210941773480766 0 0 0
11 4 1 0.5897 1.0217443881712591 3.270258414094344 3.33228983735099 0 0 0
31 11 2 -1.1794 0.6150231211855183 1.9863537434641299 2.2318054983099036 0 0 0
33 11 1 0.5897 1.4266838422897339 2.2022623669389096 1.7726211242047807 0 0 0
18 6 1 0.5897 4.028064353091148 2.9824045834941155 3.1508989373066982 0 0 0
16 6 2 -1.1794 4.146265008068499 3.8785294223928934 3.4660675233840292 0 0 0
23 8 1 0.5897 2.299390228676645 0.8375745388188269 4.39319217817979 0 0 0
12 4 1 0.5897 2.2589978188196493 3.93911262540745 3.892462687649456 0 0 0
4 2 2 -1.1794 3.7027690436119993 1.2766417189947474 3.2293581489814236 0 0 0
6 2 1 0.5897 4.2810512850819595 0.9912185300162415 3.9367307939169787 0 0 0
19 7 2 -1.1794 0.8854959815312693 6.345725752712447 2.0327552174915167 0 0 0
113 38 1 0.5897 4.713203450529415 7.566441943377794 3.96328539697195 0 0 0
140 47 1 0.5897 1.025097608502275 9.598764216706256 2.795282776561771 0 0 0
81 27 1 0.5897 0.0704280484244488 4.1992150809976865 5.028504415034163 1 0 0
236 79 1 0.5897 0.48841698883457935 0.2115598884410474 1.822275487648852 0 1 0
139 47 2 -1.1794 0.6176576540849393 9.09653019671879 2.0895555715455 0 0 0
674 225 1 0.5897 1.950190535621206 5.8232146546775345 0.5881851141213802 0 0 1
17 6 1 0.5897 4.33030772602488 4.388184973363905 2.676971846710988 0 0 0
20 7 1 0.5897 0.9786536651477259 5.66245507607762 2.6966670867921585 0 0 0
112 38 2 -1.1794 4.016078177725539 7.783430324089087 3.3443185375210196 0 0 0
14 5 1 0.5897 3.8617036821221022 5.631454190015987 1.0582241233519378 0 0 0
13 5 2 -1.1794 4.631226281409572 5.868960560648312 1.5756037598853174 0 0 0
141 47 1 0.5897 0.8353997618738795 8.185443456515056 2.2866445653535568 0 0 0
110 37 1 0.5897 1.7987089011917967 9.331981182149281 0.7136165305049819 0 0 0
114 38 1 0.5897 3.207696040482172 7.5574082538498315 3.80442337608367 0 0 0
111 37 1 0.5897 3.2654448473280415 9.367602505695896 0.3403299477024851 0 0 0
15 5 1 0.5897 4.327850598028803 6.574471817547913 2.1470303643487063 0 0 0
5 2 1 0.5897 3.8471119522668555 0.6396741666573121 2.529556481250668 0 0 0
126 42 1 0.5897 4.1062443584073485 9.626059254301676 3.084526108739811 0 0 0
3 1 1 0.5897 3.274498022951666 2.4207514269450745 0.2672208764736685 0 0 0
2 1 1 0.5897 2.2517158611877712 3.5146275158405853 0.04499265093121352 0 0 0
1 1 2 -1.1794 2.331318225870168 2.576789766722832 0.2195410421223869 0 0 0
325 109 2 -1.1794 2.403623914138075 2.700370871728829 6.73806958991204 0 0 0
326 109 1 0.5897 2.0694426878205494 2.0431947905049674 6.127546790461492 0 0 0
327 109 1 0.5897 3.315420039214121 2.449197584025032 6.885585677136879 0 0 0
355 119 2 -1.1794 1.0226508259198517 2.2099118054849445 8.924673710143498 0 0 0
356 119 1 0.5897 1.5674908212927485 2.3468389285747953 8.149644015563329 0 0 0
433 145 2 -1.1794 2.528793332080489 9.348481548962264 7.111656023791948 0 0 0
438 146 1 0.5897 4.016392264564544 8.525152261293952 9.574572117051439 0 0 0
131 44 1 0.5897 2.1957079083020714 6.60655104274642 5.74383354492512 0 0 0
343 115 2 -1.1794 1.2008776267055714 6.150871075794436 8.926148211325104 0 0 0
27 9 1 0.5897 2.3506497548566427 4.407028451394301 6.435947324198254 0 0 0
339 113 1 0.5897 4.025978817292316 5.365780870986937 7.7240803947258065 0 0 0
330 110 1 0.5897 4.3548284762123615 0.5540890423981036 9.182301605378548 0 0 0
335 112 1 0.5897 1.142798548001074 3.4859818015809108 10.196441984692534 0 0 0
357 119 1 0.5897 0.12501937396452253 2.2241724817573925 8.592553277695972 0 0 0
464 155 1 0.5897 1.387804348449523 8.966039373855345 8.32505928995531 0 0 0
435 145 1 0.5897 2.4081154383468593 8.80626096170406 6.332096742197376 0 0 0
437 146 1 0.5897 4.091226689929066 7.018592719683838 9.444736676891452 0 0 0
345 115 1 0.5897 1.130179315223638 7.0764687722892345 9.159788199229707 0 0 0
463 155 2 -1.1794 0.7360444532597608 8.91262462683897 9.02406126022306 0 0 0
468 156 1 0.5897 4.357788144732633 8.921842391732852 7.330524326271506 0 0 0
25 9 2 -1.1794 2.4697793058756674 5.323812588320255 6.68425821633145 0 0 0
344 115 1 0.5897 1.301020482781861 5.698840039717779 9.763945503000802 0 0 0
26 9 1 0.5897 2.0452691401048257 5.398059646663947 7.538980797918463 0 0 0
561 187 1 0.5897 0.8658642489185905 0.1742718905843527 8.972134202674706 0 1 0
342 114 1 0.5897 4.457036835621086 4.442875238623325 9.889504880690623 0 0 0
328 110 2 -1.1794 4.288601179192284 1.3818009592440759 9.6585403936185 0 0 0
436 146 2 -1.1794 3.9774147693278765 7.718231221780226 10.088059868834074 0 0 0
130 44 2 -1.1794 1.907683207108194 7.347447666170421 5.210532759616712 0 0 0
337 113 2 -1.1794 4.574164401317714 5.706040279642864 8.431185444168818 0 0 0
443 148 1 0.5897 1.1026582232603308 9.995348991434277 10.332849667023039 0 0 0
22 8 2 -1.1794 1.8022744324139606 0.6296187521041285 5.184326974210355 0 0 0
132 44 1 0.5897 0.9529625731611678 7.279707820412887 5.201364490743936 0 0 0
649 217 2 -1.1794 2.958091011525109 2.7799861705904765 13.490151630253903 0 0 0
650 217 1 0.5897 2.9679840379788214 2.080532934786862 12.836716007354328 0 0 0
651 217 1 0.5897 2.5823288820842616 2.3735229121535024 14.271095372420431 0 0 0
792 264 1 0.5897 4.466591817893743 9.084462626024486 14.168429138747866 0 0 0
348 116 1 0.5897 2.3221170475406376 1.1826318807397158 10.807273435790437 0 0 0
334 112 2 -1.1794 1.3628566555761445 4.080906053514571 10.91333557358397 0 0 0
757 253 2 -1.1794 2.5925912812753804 9.294937743972739 13.735835673625177 0 0 0
350 117 1 0.5897 2.5214798356996733 4.6902449351604725 13.51884041714056 0 0 0
336 112 1 0.5897 2.306774242181581 3.975014176847072 11.031901616781562 0 0 0
351 117 1 0.5897 3.484496094693378 5.521574743637238 14.33950801406858 0 0 0
456 152 1 0.5897 2.236370016001816 6.8074029430720975 12.633699655595905 0 0 0
668 223 1 0.5897 1.3186254163655824 5.914431913588208 15.313760196468506 0 0 0
346 116 2 -1.1794 2.1893284473402086 0.8362188892507317 11.689684189803135 0 0 0
683 228 1 0.5897 4.681529653737659 2.905720811613488 13.97467497402271 0 0 0
349 117 2 -1.1794 2.6372779466267944 5.5624552233123525 13.895892484626186 0 0 0
329 110 1 0.5897 4.7656413266461115 1.2282723796003243 10.474088536830994 0 0 0
347 116 1 0.5897 1.2522114453129325 0.9449492526734529 11.851677540398162 0 0 0
455 152 1 0.5897 2.4735262096988 7.331345531824011 11.233252741762175 0 0 0
759 253 1 0.5897 2.478950799001061 8.704003017902455 12.991399570397675 0 0 0
454 152 2 -1.1794 1.878302201894829 7.407020532804825 11.979065670771561 0 0 0
789 263 1 0.5897 1.4526696080638335 8.917476341299272 15.290127807096646 0 0 0
533 178 1 0.5897 0.09140816456792114 7.129228030063963 11.963687240553655 1 0 0
340 114 2 -1.1794 4.210253384390169 3.9098778739401383 10.64533684297882 0 0 0
680 227 1 0.5897 0.5129969177703704 2.4756669989213895 15.501955773012112 0 0 0
341 114 1 0.5897 4.351971598215537 3.0074424204412007 10.35923962670239 0 0 0
658 220 2 -1.1794 1.3270426731725375 4.259036705263306 17.754887954643998 0 0 0
664 222 2 -1.1794 3.954801369596416 3.9998124801239983 17.43258890868389 0 0 0
666 222 1 0.5897 3.929891784359773 3.043158735477596 17.409394144223214 0 0 0
671 224 1 0.5897 1.9683071832857721 1.7637052408518825 19.408761534571198 0 0 0
653 218 1 0.5897 3.1755264726158554 1.0022859855637516 17.379929309817072 0 0 0
670 224 2 -1.1794 1.729120480742364 1.13307859656277 18.729501622996978 0 0 0
652 218 2 -1.1794 4.027758328769996 1.2661881399323531 17.033090189881058 0 0 0
672 224 1 0.5897 0.7728220435350146 1.1017472295356372 18.757134903628113 0 0 0
679 227 2 -1.1794 1.3689767635603305 2.1603786733862154 15.792039181808708 0 0 0
659 220 1 0.5897 0.6960178895649083 4.14484390219575 18.465538222406465 0 0 0
654 218 1 0.5897 4.235928894470601 0.6014494905739031 16.376505720173974 0 0 0
858 286 1 0.5897 0.3157168477099038 7.614388213044098 19.094131743989948 1 0 0
665 222 1 0.5897 3.040102071682967 4.261224221092572 17.538522850003254 0 0 0
681 227 1 0.5897 1.5988462932705816 2.730806100819529 16.52556185829122 0 0 0
660 220 1 0.5897 1.027963964923043 5.041589999066922 17.291792848262283 0 0 0
788 263 1 0.5897 1.171084432870868 9.52563070643753 16.64766603856755 0 0 0
662 221 1 0.5897 4.799602663767075 5.0547960868055775 16.076786501491128 0 0 0
780 260 1 0.5897 2.5527756392873884 7.535076638888935 18.155398860314968 0 0 0
787 263 2 -1.1794 0.8631038468410818 8.851919475061496 16.0413844805313 0 0 0
675 225 1 0.5897 2.5023363264165566 5.9360449854794215 19.93783697685906 0 0 0
779 260 1 0.5897 2.3668910946941715 8.081108549032027 19.55515341672872 0 0 0
760 254 2 -1.1794 4.143074351726734 7.885572897717664 16.9471381823952 0 0 0
778 260 2 -1.1794 2.1219284743731794 7.348704030038089 18.989611323285153 0 0 0
761 254 1 0.5897 4.152831368996835 8.841838110124526 16.989388007272417 0 0 0
884 295 1 0.5897 0.8860720832812455 0.29172336304948443 15.749705812783075 0 1 0
663 221 1 0.5897 4.81703524351622 6.557003764194453 15.888991249383858 0 0 0
762 254 1 0.5897 4.594292274759969 7.605542320119535 17.743523138278775 0 0 0
669 223 1 0.5897 0.7056149285471349 7.087824766364407 16.048239207508296 0 0 0
673 225 2 -1.1794 2.523756702633523 5.380745352174197 20.717253531555635 0 0 0
109 37 2 -1.1794 2.3870120106775365 9.39096984122577 20.715620729335534 0 0 -1
667 223 2 -1.1794 0.6718391520740609 6.133280970318434 15.984592348464451 0 0 0
240 80 1 0.5897 2.6343334581065294 14.107982594868739 4.365323401298825 0 0 0
129 43 1 0.5897 0.8872435275556285 13.789427472830392 2.3174751515164287 0 0 0
120 40 1 0.5897 1.2934589052313707 11.676866640404752 3.431070383285504 0 0 0
127 43 2 -1.1794 0.8368087449526765 12.870955638870232 2.052517515536734 0 0 0
247 83 2 -1.1794 0.6588442715196158 15.70263168345669 2.3943755310299424 0 0 0
125 42 1 0.5897 4.78068837846758 10.627637753153772 3.99776668404239 0 0 0
219 73 1 0.5897 3.201756105322096 15.732063115580956 0.0049527912751125905 0 0 0
118 40 2 -1.1794 1.6199115922081917 10.944870104581398 3.9543501865071544 0 0 0
221 74 1 0.5897 4.328972096859439 15.212232057251065 2.906526310483469 0 0 0
229 77 2 -1.1794 4.576227983291141 19.091816500833342 1.5964034746181848 0 0 0
119 40 1 0.5897 2.5677398667443616 10.958764113330307 3.821584530516037 0 0 0
249 83 1 0.5897 1.2762475205163177 15.717152515502962 1.6630424477986152 0 0 0
222 74 1 0.5897 4.262735663986839 13.799132947917643 2.3671820144867475 0 0 0
124 42 2 -1.1794 4.2324187315426585 10.565869014263688 3.215563415570663 0 0 0
783 261 1 0.5897 1.5882067342473103 12.485139985350685 0.4399191846187843 0 0 1
233 78 1 0.5897 4.68324153656893 17.662393304649935 2.8235535782328767 0 0 0
248 83 1 0.5897 0.8959266910034169 16.464105506613375 2.923752785985866 0 0 0
228 76 1 0.5897 0.7776906697250031 17.760168508099675 4.199599515662524 0 0 0
123 41 1 0.5897 3.9499036941278494 12.500636949522809 0.6607557147038435 0 0 0
232 78 2 -1.1794 4.309388658225002 17.132105993347167 3.527334481425434 0 0 0
220 74 2 -1.1794 3.9851556332924023 14.341314429751696 3.1055980799782716 0 0 0
235 79 2 -1.1794 0.5458607802681006 18.997033849518427 1.533296897954996 0 0 0
238 80 2 -1.1794 1.8871713294547177 13.887479370290714 4.9215304435575655 0 0 0
234 78 1 0.5897 3.405420077470419 17.43749640919881 3.6036363529077273 0 0 0
226 76 2 -1.1794 1.5947941404342532 17.790609473132182 3.701950145070746 0 0 0
227 76 1 0.5897 1.3917761206948738 18.33352089290176 2.940159689069894 0 0 0
230 77 1 0.5897 4.025261636449641 19.058993491121807 0.8143437784022285 0 0 0
890 297 1 0.5897 1.888750902225098 19.09217176261573 0.3091264942029929 0 0 1
122 41 1 0.5897 4.6632914615268515 11.699294567351938 1.7289171275041029 0 0 0
246 82 1 0.5897 4.972491731709361 13.925707528322448 4.582597440734666 0 0 0
121 41 2 -1.1794 4.751789232876427 12.480678765843194 1.1830841042256877 0 0 0
217 73 2 -1.1794 2.2625420895065536 15.902959864021744 0.07508887781992257 0 0 0
133 45 2 -1.1794 2.445017365018278 11.992187763429932 6.717071399968485 0 0 0
134 45 1 0.5897 1.8674115405267449 12.091636110238428 7.473875003545698 0 0 0
135 45 1 0.5897 3.327344202405973 11.983335710966436 7.088117328505744 0 0 0
543 181 1 0.5897 2.1292819129139384 15.148675065966286 6.054936284373938 0 0 0
434 145 1 0.5897 2.2903898528107933 10.231468541268507 6.829117760199416 0 0 0
450 150 1 0.5897 4.355659758843281 11.324061741623602 9.920124457614774 0 0 0
24 8 1 0.5897 2.1896305246731593 19.510924768379628 5.503906271115586 0 -1 0
558 186 1 0.5897 4.073784016327848 17.55779336769253 9.865633601483568 0 0 0
576 192 1 0.5897 4.141443958349742 15.479373997742895 7.428468588745347 0 0 0
445 149 2 -1.1794 4.720341240802339 12.39695242041421 8.347290552333199 0 0 0
573 191 1 0.5897 0.8392975930696968 14.17767010484952 9.317136259761334 0 0 0
453 151 1 0.5897 1.1917569559784633 11.908471968006884 9.641483346619689 0 0 0
542 181 1 0.5897 1.4770297169937858 15.222671244123655 7.419154980532019 0 0 0
555 185 1 0.5897 4.254521149162216 18.446293745324486 7.819428638192898 0 0 0
553 185 2 -1.1794 4.801479707243864 18.609321703042152 8.587883755859236 0 0 0
572 191 1 0.5897 0.9308015918892325 15.536575300676578 9.978291645360303 0 0 0
559 187 2 -1.1794 0.8720665117677863 18.93103514661621 8.788802792335781 0 0 0
242 81 1 0.5897 2.5896237358096266 17.37142586988344 6.765948179560058 0 0 0
541 181 2 -1.1794 2.2066529111050843 15.574178933173327 6.908893730493202 0 0 0
241 81 2 -1.1794 2.7009376690644302 18.31872659128837 6.846991255497257 0 0 0
243 81 1 0.5897 2.092342738657164 18.573464170621133 7.540509035073378 0 0 0
446 149 1 0.5897 4.434278672998757 13.201513532438511 8.779925567401309 0 0 0
451 151 2 -1.1794 0.988499333213035 12.463815525067668 8.88878440107821 0 0 0
551 184 1 0.5897 1.130119467053 17.864569682235047 10.280899678711812 0 0 0
571 191 2 -1.1794 0.5521240728592204 15.085989090306656 9.223394058367 0 0 0
452 151 1 0.5897 0.08712917277895826 12.237217547377314 8.659799737101077 0 0 0
188 63 1 0.5897 0.275338080862477 10.96183531110632 5.173514233358072 1 0 0
544 182 2 -1.1794 4.3190976046596035 14.39015184259898 10.251438488411939 0 0 0
239 80 1 0.5897 2.2187622297425538 13.210676099168081 5.51169388253349 0 0 0
457 153 2 -1.1794 2.653694899275906 12.037275588281087 13.430300352742721 0 0 0
458 153 1 0.5897 2.067654203701722 12.25919430371314 14.153871193995812 0 0 0
459 153 1 0.5897 3.5111987532487743 11.927130743738733 13.84113805840806 0 0 0
562 188 2 -1.1794 2.1881557789340444 14.265005229325332 11.908452814331262 0 0 0
563 188 1 0.5897 2.2543283379652848 13.425768953699908 12.364121909537861 0 0 0
896 299 1 0.5897 0.4960818596112321 15.220293121004318 15.326756615789057 0 0 0
567 189 1 0.5897 2.695852024712148 19.017015085806744 12.76839181841665 0 0 0
776 259 1 0.5897 0.07590331917405212 12.630429276533569 15.442548406346075 0 0 0
879 293 1 0.5897 4.296728648096123 19.047261647945742 14.68133668124498 0 0 0
885 295 1 0.5897 1.5632094908426657 18.972875527120948 14.853556050916033 0 0 0
444 148 1 0.5897 2.399265758179113 10.66941048138849 10.72827359780273 0 0 0
449 150 1 0.5897 4.678321617377533 10.97473513743216 11.35739677603538 0 0 0
867 289 1 0.5897 2.4974211432942686 15.77284893584732 14.627606038755424 0 0 0
557 186 1 0.5897 4.29173697026206 16.140194985731664 10.3504979805829 0 0 0
564 188 1 0.5897 2.5023710477727477 14.908468998519718 12.54361942645861 0 0 0
865 289 2 -1.1794 3.1535867936753914 16.041112255013054 13.984370144095864 0 0 0
546 182 1 0.5897 4.979045081104435 14.284205873132494 10.936640134768222 0 0 0
565 189 2 -1.1794 2.7977291343614503 18.707236599580483 13.668355879557126 0 0 0
552 184 1 0.5897 2.2204743443231107 17.03523301479861 10.925387264827673 0 0 0
566 189 1 0.5897 2.9790798007775914 17.771387309172752 13.580987633049354 0 0 0
866 289 1 0.5897 3.991804581197845 15.909695431383938 14.427513961099839 0 0 0
545 182 1 0.5897 3.4826851774033125 14.343226813156239 10.71453809814027 0 0 0
556 186 2 -1.1794 3.9852091119482833 17.00007807959374 10.638560825693657 0 0 0
550 184 2 -1.1794 1.270055885213257 17.145485114984165 10.897063720969195 0 0 0
769 257 2 -1.1794 4.78677159069127 12.441589209005622 15.337686940015207 0 0 0
442 148 2 -1.1794 1.4490701476061896 10.747213368450918 10.813495457572973 0 0 0
512 171 1 0.5897 0.13771717917543924 10.9666641783989 12.094001115046956 1 0 0
758 253 1 0.5897 2.4175923744540886 10.166063000359175 13.379703908100828 0 0 0
642 214 1 0.5897 0.4868120459647045 14.130887219811525 11.948674967772298 1 0 0
883 295 2 -1.1794 0.8465905174981807 19.070171579206345 15.480655568890967 0 0 0
877 293 2 -1.1794 4.928590544869132 19.0387855979675 15.400310335277144 0 0 0
448 150 2 -1.1794 4.265057369389606 10.62518339646192 10.567923229192484 0 0 0
888 296 1 0.5897 2.1950519630458762 13.600304929450628 19.16614872198644 0 0 0
768 256 1 0.5897 1.2189860799713002 11.536098668240392 17.137978089555823 0 0 0
773 258 1 0.5897 3.168545847454287 10.838708874186725 17.158325547440285 0 0 0
889 297 2 -1.1794 2.6008126240346647 18.924106321614293 20.446689328811026 0 0 0
868 290 2 -1.1794 4.118412149340052 14.39611468249664 16.949642599898183 0 0 0
766 256 2 -1.1794 1.4535403719974502 10.852903636837913 17.76610176314449 0 0 0
886 296 2 -1.1794 1.9283537091698333 14.325521257601737 18.601136732120935 0 0 0
771 257 1 0.5897 4.546643866250092 13.227811121422032 15.828115072638154 0 0 0
891 297 1 0.5897 2.3947548646065955 19.47028935440112 19.688055105105803 0 0 0
772 258 2 -1.1794 4.069113876989342 10.550391804640388 17.009689269598205 0 0 0
873 291 1 0.5897 4.9842894222280405 17.555715717809292 18.595263097357012 0 0 0
869 290 1 0.5897 3.35998636046141 14.131406441595574 17.470208677243534 0 0 0
875 292 1 0.5897 0.6599146132847821 17.64548542539362 18.144677013219365 0 0 0
887 296 1 0.5897 1.9951235102534344 15.101008926892632 19.158326486914746 0 0 0
880 294 2 -1.1794 3.9877606314810197 17.237522688251843 17.17220827043859 0 0 0
897 299 1 0.5897 1.1599991314503653 15.719477409737527 16.592458370302147 0 0 0
774 258 1 0.5897 4.428470365298196 11.19205657584931 16.39696295338792 0 0 0
882 294 1 0.5897 4.157441777602187 16.303999034841098 17.045646120979022 0 0 0
767 256 1 0.5897 0.6640755423254386 10.730267399170222 18.293300404186432 0 0 0
881 294 1 0.5897 3.0510963257674444 17.287511383892934 17.363005962592354 0 0 0
874 292 2 -1.1794 1.2853556322190711 17.315676275342856 17.499486788050532 0 0 0
876 292 1 0.5897 1.1973447023216375 17.910022393277057 16.7542929755065 0 0 0
895 299 2 -1.1794 1.3166297273484895 15.17922841950775 15.817941113867189 0 0 0
777 259 1 0.5897 1.2914411445432363 13.476576165987419 15.75640853326638 0 0 0
965 322 1 0.5897 0.27198388076648805 14.141054548548043 19.15227464349278 1 0 0
878 293 1 0.5897 4.648811282155475 18.312171701546177 15.957138287116974 0 0 0
870 290 1 0.5897 4.868584484276085 14.245808781809433 17.52489501853438 0 0 0
218 73 1 0.5897 2.1726740686106445 16.834968113667287 20.630859412829004 0 0 -1
781 261 2 -1.1794 2.2216936473681 12.351802994253074 20.489619280198667 0 0 0
782 261 1 0.5897 1.9195489735550526 11.561604995022698 20.041732152837408 0 0 0
775 259 2 -1.1794 1.0150830635686008 12.570670944705725 15.61749848615291 0 0 0
68 23 1 0.5897 8.029346636695827 2.5338692960338314 1.2812758102693078 0 0 0
711 237 1 0.5897 8.7109850873397 6.058268007024253 0.41461848185750066 0 0 1
56 19 1 0.5897 6.349496047394935 6.105330634122732 1.6570852525188244 0 0 0
53 18 1 0.5897 9.502722490261618 4.503718424087965 3.74707972584323 0 0 0
67 23 2 -1.1794 7.407128958355503 2.317126390101661 1.975628136877838 0 0 0
47 16 1 0.5897 7.630955368255213 3.561235105244917 3.3085380077412276 0 0 0
46 16 2 -1.1794 7.781639330257129 4.36095465096771 3.812592211228593 0 0 0
69 23 1 0.5897 6.547401839671161 2.411353745964921 1.565487686824578 0 0 0
143 48 1 0.5897 6.115963923166569 9.095646941722379 1.0671827894134511 0 0 0
34 12 2 -1.1794 5.048548021457837 2.475862722780802 0.390871783350187 0 0 0
29 10 1 0.5897 6.7348252350477305 0.6746648295543817 4.814498229924153 0 0 0
176 59 1 0.5897 7.761700609094213 8.116295064480527 2.319570095336338 0 0 0
48 16 1 0.5897 7.2063915110960055 4.277286073702502 4.573082491528265 0 0 0
175 59 2 -1.1794 7.783577579183659 9.033215762448195 2.04549888278481 0 0 0
57 19 1 0.5897 7.402054029081886 5.580898796690872 2.6105437949801105 0 0 0
177 59 1 0.5897 8.496448642291107 9.076241350849527 1.408155093694136 0 0 0
55 19 2 -1.1794 7.243187430452607 6.265271300091475 1.9603836576825235 0 0 0
37 13 2 -1.1794 9.23443059908594 3.062804129116543 0.007256797657356595 0 0 0
58 20 2 -1.1794 8.478046322041358 1.0003604725972615 4.6626987630732595 0 0 0
9 3 1 0.5897 5.1273908479482015 4.397975543847816 4.9453350577048925 0 0 0
142 48 2 -1.1794 5.404691890017011 9.191483403089752 0.43380246524176613 0 0 0
273 91 1 0.5897 7.341801074273405 0.39470321187849744 2.245696860700361 0 1 0
41 14 1 0.5897 9.817118662160862 1.4435429140634906 3.5033270966203474 0 0 0
166 56 2 -1.1794 8.639688209553707 7.771582096944584 4.853088593141592 0 0 0
138 46 1 0.5897 6.841696607752974 7.476514360722434 5.039008188318605 0 0 0
28 10 2 -1.1794 5.813480444351985 0.487799526338222 4.994664064032426 0 0 0
144 48 1 0.5897 5.275496907079168 8.310324641822797 0.08288437383462366 0 0 0
371 124 1 0.5897 7.739848235933235 3.4246290774058954 10.247422130152135 0 0 0
359 120 1 0.5897 5.762502453235954 2.1271003687023455 7.692140715229023 0 0 0
59 20 1 0.5897 8.828116054318242 1.5529502971540137 5.361544960611454 0 0 0
8 3 1 0.5897 5.838515337788424 3.7361865366190354 6.106530976627485 0 0 0
361 121 2 -1.1794 9.458259693286927 2.82010498640844 6.743868042870974 0 0 0
362 121 1 0.5897 9.483879372829053 3.7714667831174444 6.641075541546893 0 0 0
393 131 1 0.5897 7.452987422624035 1.2528188895243393 8.660185754639047 0 0 0
360 120 1 0.5897 5.4477025268413755 1.5894526896490495 6.312362453752277 0 0 0
392 131 1 0.5897 7.982173249157853 2.507295935748988 7.998154133260444 0 0 0
391 131 2 -1.1794 7.437771814782747 2.2076552517914347 8.726241896991542 0 0 0
466 156 2 -1.1794 5.300693604723255 8.798855847994572 7.440199303103036 0 0 0
61 21 2 -1.1794 9.305462745433132 5.598905876397948 6.535102324735426 0 0 0
469 157 2 -1.1794 9.129639802358094 9.507778239070714 6.821661503269943 0 0 0
381 127 1 0.5897 7.497768416211806 5.352056305884211 9.272800775007159 0 0 0
7 3 2 -1.1794 5.826157853141414 4.538334029822393 5.584306492137549 0 0 0
379 127 2 -1.1794 7.3296202782922935 5.876291990749702 8.489807799405678 0 0 0
380 127 1 0.5897 7.39247758716344 6.7830841017809735 8.790009299576592 0 0 0
137 46 1 0.5897 5.82310845235485 6.386982353966044 5.298695972287347 0 0 0
168 56 1 0.5897 8.757986929123254 8.477605158606254 5.48855685844069 0 0 0
500 167 1 0.5897 7.607927178633242 9.193138955116405 9.641789830973087 0 0 0
467 156 1 0.5897 5.525537007929677 8.103457317166011 6.822006900072696 0 0 0
62 21 1 0.5897 8.65367111146457 5.757982153365892 7.217841123480768 0 0 0
470 157 1 0.5897 8.563484243518294 9.182543985532092 7.521638085925539 0 0 0
501 167 1 0.5897 6.671798404391568 8.66292486655405 8.576636308338385 0 0 0
499 167 2 -1.1794 7.574799784166724 8.603416837263355 8.88851720680721 0 0 0
338 113 1 0.5897 5.452411529724937 5.751639684465088 8.053238446839709 0 0 0
136 46 2 -1.1794 5.913013178156879 7.337098060509794 5.224378385849808 0 0 0
358 120 2 -1.1794 5.180044504727323 2.2572499849168204 6.943792346339604 0 0 0
167 56 1 0.5897 8.753189537372444 6.968907321999397 5.36216724369585 0 0 0
377 126 1 0.5897 9.759069321084075 4.152279837910665 10.267137094486273 0 0 0
384 128 1 0.5897 9.49237024938263 1.0883278810205927 11.306481060720788 0 0 0
684 228 1 0.5897 5.941482535603307 3.742963627051108 13.915169515976583 0 0 0
370 124 2 -1.1794 8.075108277617428 4.190652373533606 10.713390827623355 0 0 0
354 118 1 0.5897 5.937698516339261 1.904286834145129 12.754940397839118 0 0 0
352 118 2 -1.1794 5.996389867175368 1.353568887284266 11.974196497606794 0 0 0
382 128 2 -1.1794 8.704322750156747 1.0189754076083601 11.84533921093748 0 0 0
372 124 1 0.5897 7.464974609246303 4.31542066704822 11.440321106227616 0 0 0
685 229 2 -1.1794 8.928455503647736 3.09108470897023 13.630637875683181 0 0 0
686 229 1 0.5897 8.42646273632918 2.7820103349115124 14.384789007054406 0 0 0
661 221 2 -1.1794 5.172543562213321 5.744807693602226 15.52804903326376 0 0 0
353 118 1 0.5897 6.927493955671664 1.1455763340792617 11.896670254977552 0 0 0
383 128 1 0.5897 8.822516454678508 1.678118919562213 12.52935139772529 0 0 0
386 129 1 0.5897 9.256555759264854 5.038304344298161 13.260554674293449 0 0 0
385 129 2 -1.1794 9.375014671038802 5.894968799253823 13.670959488700865 0 0 0
331 111 2 -1.1794 5.99017151109855 5.015525946828619 12.352701046134818 0 0 0
461 154 1 0.5897 5.618662116007841 8.130511513587239 12.593525406175475 0 0 0
793 265 2 -1.1794 9.209762432395406 9.737438265421682 13.994587297679265 0 0 0
492 164 1 0.5897 7.771135620925067 7.93540134501567 11.611915497051275 0 0 0
794 265 1 0.5897 9.120415485777206 9.16900606692199 13.22960063548819 0 0 0
462 154 1 0.5897 5.161880063336377 7.773712744513107 11.194934727646421 0 0 0
790 264 2 -1.1794 5.378836163328876 9.34764462020506 14.046788832689503 0 0 0
387 129 1 0.5897 9.120215238027624 6.522485980860017 12.99453164489957 0 0 0
332 111 1 0.5897 5.193089209141464 4.720200050049878 11.91262064309191 0 0 0
460 154 2 -1.1794 5.898351970003185 7.676466772378882 11.79860031945115 0 0 0
333 111 1 0.5897 5.961177863904668 5.970065787846604 12.286714985579415 0 0 0
705 235 1 0.5897 8.215921500418554 5.90068861995787 15.002467312896083 0 0 0
490 164 2 -1.1794 8.663622325569095 8.007650981783097 11.950198188824558 0 0 0
791 264 1 0.5897 5.795155083379739 9.166869000176499 14.889549913662888 0 0 0
491 164 1 0.5897 9.217988804680932 7.992185835468914 11.170004875668312 0 0 0
682 228 2 -1.1794 5.5785386868213624 2.9481012406633296 14.306053334758392 0 0 0
824 275 1 0.5897 8.090610214301654 9.11826866978278 15.06691059006586 0 0 0
687 229 1 0.5897 9.843295018485293 2.983157358292892 13.890767392563909 0 0 0
706 236 2 -1.1794 8.338655334833579 1.2523691694868087 18.9318484127773 0 0 0
655 219 2 -1.1794 5.9254691237208155 4.325877071405722 19.4228664664968 0 0 0
707 236 1 0.5897 8.678777695377827 0.5340422386611436 19.465359068798136 0 0 0
695 232 1 0.5897 8.088712145616865 3.4355867453400615 17.24760873697388 0 0 0
823 275 2 -1.1794 7.464067001229634 8.874701604652271 15.748372313929908 0 0 0
657 219 1 0.5897 6.749121869593355 4.20388322335978 18.95069187579763 0 0 0
696 232 1 0.5897 8.01180087680007 4.943632193558078 17.357140361555246 0 0 0
702 234 1 0.5897 9.993465995297182 4.099445149308314 17.74871433795358 0 0 0
38 13 1 0.5897 9.072923297034897 2.418583892638938 20.0727241205176 0 0 -1
825 275 1 0.5897 7.662830648851182 7.958269878592157 15.940710068484304 0 0 0
715 239 2 -1.1794 7.705764305685084 2.3386560425178957 15.947763761765199 0 0 0
708 236 1 0.5897 7.439121056682101 0.9955665576640462 18.729026683649117 0 0 0
703 235 2 -1.1794 7.841573678449832 6.039817806232473 15.872402489174458 0 0 0
694 232 2 -1.1794 8.141089601290306 4.152299467609169 17.87997609318314 0 0 0
35 12 1 0.5897 5.210436532822456 1.7706248148996586 20.518996502481393 0 0 -1
786 262 1 0.5897 6.395902403385033 7.537497045961402 18.84544529096651 0 0 0
815 272 1 0.5897 8.443694830050092 6.870155705124501 19.084766762550302 0 0 0
676 226 2 -1.1794 5.636409848620716 0.7580455315258734 19.193763378426745 0 0 0
816 272 1 0.5897 8.607664755499565 8.354183961869705 19.33565939038349 0 0 0
814 272 2 -1.1794 8.246496991019773 7.727874037293541 18.70828099900357 0 0 0
784 262 2 -1.1794 5.613858494037151 7.031392952071436 19.065667652087733 0 0 0
785 262 1 0.5897 5.949954419524741 6.1800772237751405 19.34608303249312 0 0 0
716 239 1 0.5897 7.648306949260962 1.386557274023489 16.02868246964149 0 0 0
704 235 1 0.5897 6.907208911426405 5.863285999565315 15.762622294776078 0 0 0
677 226 1 0.5897 5.098861853646778 0.9958986514496824 18.438288314189258 0 0 0
689 230 1 0.5897 9.789446041266196 1.2364168761172591 17.510822621485275 0 0 0
709 237 2 -1.1794 9.129405638264895 5.669380268349696 20.401325261854083 0 0 0
656 219 1 0.5897 5.247160329632795 4.1889983381042 18.761496527629504 0 0 0
797 266 1 0.5897 9.673419925620376 7.8819486065267785 17.673332462877724 0 0 0
145 49 2 -1.1794 9.434775250975854 9.459715840899225 20.591389421523573 0 0 -1
710 237 1 0.5897 8.969913440548227 4.729784533080302 20.491038491938323 0 0 0
36 12 1 0.5897 5.3968206087585715 3.25952297714394 20.720341949588082 0 0 -1
717 239 1 0.5897 6.868332547520187 2.597836767780965 15.563323372619164 0 0 0
254 85 1 0.5897 8.660155598631858 16.081779977332413 0.6820705305246193 0 0 0
154 52 2 -1.1794 8.058295585180135 10.909259191418599 3.9801244278817096 0 0 0
274 92 2 -1.1794 8.354986965249259 14.006768397118178 5.123940429785011 0 0 0
165 55 1 0.5897 7.766881443484577 12.146395880601997 2.6436125477171166 0 0 0
163 55 2 -1.1794 7.475524997146535 12.598825489290556 1.8519717181592268 0 0 0
164 55 1 0.5897 6.585110052557678 12.278974385621206 1.706721698688905 0 0 0
156 52 1 0.5897 9.010969593596576 10.935395674448012 4.069419985831232 0 0 0
271 91 2 -1.1794 7.229806850293546 19.226721890016385 1.8496763681653767 0 0 0
262 88 2 -1.1794 7.723745887983844 17.17581417543613 3.709378362579011 0 0 0
285 95 1 0.5897 7.316203004728929 14.450631796515927 1.6974129395389448 0 0 0
231 77 1 0.5897 5.471989885660337 19.061395556035908 1.2603467536971702 0 0 0
251 84 1 0.5897 5.832037898120536 15.406851470006062 0.5602608096949432 0 0 0