LAMMPS data file via write_data, version 30 Jul 2021, timestep = 27000000

972 atoms
2 atom types
648 bonds
1 bond types
324 angles
1 angle types

0.18026418745456674 19.81973681254135 xlo xhi
0.09995303302321545 19.900047966973055 ylo yhi
0.18190394878762284 20.518094051222043 zlo zhi

Masses

1 1.008
2 15.999

Pair Coeffs # lj/cut/tip4p/long/omp

1 0 0
2 0.21084 3.1668

Bond Coeffs # harmonic/omp

1 450 0.9572

Angle Coeffs # harmonic/omp

1 55 104.52

Atoms # full

4 2 2 -1.1794 4.228951661413585 0.926174544958563 3.3794800928235134 0 0 0
5 2 1 0.5897 4.426306815328052 0.25738263091098623 2.7236590983827065 0 0 0
17 6 1 0.5897 4.669583518664055 4.217362687071786 3.0659776020937732 0 0 0
10 4 2 -1.1794 1.8737142184412297 4.190216350410964 3.842392573119698 0 0 0
11 4 1 0.5897 1.5782255107288246 3.407961247903854 3.376443785411222 0 0 0
12 4 1 0.5897 2.803636328960184 4.034344154993557 4.007349987807016 0 0 0
16 6 2 -1.1794 4.5844098704297185 3.654616287023725 3.8356428973875194 0 0 0
18 6 1 0.5897 4.4553436239068525 2.7762360463611717 3.4776619825723376 0 0 0
23 8 1 0.5897 2.7358565898139475 0.99478943498223 4.413377331751932 0 0 0
31 11 2 -1.1794 1.0701007196238326 2.001479028788372 2.2891587893450223 0 0 0
33 11 1 0.5897 1.7819891624936686 2.1634451254784905 1.6700760521457954 0 0 0
3 1 1 0.5897 3.5176175270706014 2.569288325119503 0.28932097651582345 0 0 0
6 2 1 0.5897 4.740266500988657 0.6683716702390105 4.14654552447655 0 0 0
236 79 1 0.5897 1.00345232672281 0.3514558271459491 1.9114033575499438 0 1 0
22 8 2 -1.1794 2.148373037695805 1.0270171819414364 5.1684273034371255 0 0 0
32 11 1 0.5897 0.27592240342297286 2.232894682627491 1.8075069925735103 0 0 0
81 27 1 0.5897 0.39545713374384256 4.157080694761926 5.027641350182708 1 0 0
102 34 1 0.5897 0.34139892074213585 0.8064150509651329 5.022905160953289 1 0 0
356 119 1 0.5897 1.709458986343858 2.2375224706378054 8.530820520529934 0 0 0
27 9 1 0.5897 2.999141632556953 4.548467699141587 6.474489906160194 0 0 0
325 109 2 -1.1794 2.704397044087543 2.8308664134796016 7.082188221210822 0 0 0
326 109 1 0.5897 2.475823951227524 2.2132817392864097 6.387439852874875 0 0 0
327 109 1 0.5897 3.6475416621391705 2.7193243196762578 7.201690865819231 0 0 0
330 110 1 0.5897 4.432393696488742 0.43798245097961586 9.702195776338828 0 0 0
355 119 2 -1.1794 1.0774684285237752 2.196111265445213 9.24856622385795 0 0 0
342 114 1 0.5897 4.492127669853492 4.582496101417438 9.792321598323884 0 0 0
561 187 1 0.5897 1.0820543239648344 0.4762596840005114 9.037052000059143 0 1 0
328 110 2 -1.1794 4.154063186729195 1.164002540274303 10.260551068298643 0 0 0
24 8 1 0.5897 2.2940908304326704 0.1964635948201981 5.621510626183029 0 0 0
341 114 1 0.5897 4.211015051776833 3.150492405309916 10.19549958113371 0 0 0
335 112 1 0.5897 1.4707613321213253 3.6533425873753975 10.136407360534246 0 0 0
357 119 1 0.5897 0.22514606410137733 2.292456254454467 8.823674178718596 0 0 0
334 112 2 -1.1794 1.5999251440429703 4.447018994015762 10.655774425702457 0 0 0
350 117 1 0.5897 2.5349516578266758 4.47852500083228 13.599288999938352 0 0 0
346 116 2 -1.1794 1.9335330476975987 1.150601605400432 11.859457280392169 0 0 0
347 116 1 0.5897 1.0908482570293523 1.145813995102719 11.40544760878435 0 0 0
348 116 1 0.5897 2.580602452652924 1.0227699314293217 11.16574480920763 0 0 0
683 228 1 0.5897 4.123137436319333 2.484670429395618 14.425975777596761 0 0 0
649 217 2 -1.1794 2.393584148942132 2.7487947707762848 13.877012185734797 0 0 0
650 217 1 0.5897 2.266084033711487 2.2224653265518337 13.087682566848395 0 0 0
651 217 1 0.5897 1.7798491519052748 2.3806314304243688 14.512678491596995 0 0 0
336 112 1 0.5897 2.542099208451292 4.4739704904451205 10.822603340800116 0 0 0
329 110 1 0.5897 4.712723680092093 1.0989190073280977 11.035113311592886 0 0 0
340 114 2 -1.1794 4.387481301129221 4.0184489316906316 10.558627607056476 0 0 0
405 135 1 0.5897 0.46259511455060703 4.47173194520065 12.08132468804256 1 0 0
682 228 2 -1.1794 5.078977173543262 2.49884012284509 14.475074121833636 0 0 0
652 218 2 -1.1794 4.158107305566748 0.9897013367483971 17.135391912646966 0 0 0
653 218 1 0.5897 3.233205089570984 0.9013777848232134 17.365611411982435 0 0 0
679 227 2 -1.1794 0.6705090013450311 1.9838566250716487 15.947902940733268 0 0 0
658 220 2 -1.1794 1.5451392033775047 4.0041931196863185 17.634054628187904 0 0 0
659 220 1 0.5897 0.8752976860650697 4.155797794703455 18.300843879250856 0 0 0
664 222 2 -1.1794 4.172488596657084 3.6790749123521076 17.422616966464282 0 0 0
665 222 1 0.5897 3.2212931032367 3.7702394195698457 17.47895214622394 0 0 0
666 222 1 0.5897 4.317483186835071 2.7391126999255513 17.313910693324097 0 0 0
670 224 2 -1.1794 1.7350814900035898 0.838785086560791 18.326866095880547 0 0 0
671 224 1 0.5897 2.0784494981961092 1.4214648124258484 19.004288676966972 0 0 0
672 224 1 0.5897 0.7840509401072601 0.914336262825529 18.404824454827462 0 0 0
681 227 1 0.5897 0.9592051895733826 2.6622750090520517 16.558421908708617 0 0 0
654 218 1 0.5897 4.262075389567883 0.4532542979793138 16.349425848960628 0 0 0
884 295 1 0.5897 0.8500541447317529 0.29660964870445905 15.649581336522283 0 1 0
2 1 1 0.5897 2.461783679867294 3.6135536392395338 20.330867901877568 0 0 -1
1 1 2 -1.1794 2.5839078912024025 2.6704625173288323 20.44055469916571 0 0 -1
660 220 1 0.5897 1.4579621280090682 4.744601189713964 17.033607405455307 0 0 0
662 221 1 0.5897 4.715914672388849 4.73038310996621 15.988133353086358 0 0 0
110 37 1 0.5897 1.9548764507398995 9.404182143661387 0.9013467278211967 0 0 0
141 47 1 0.5897 1.059083545467998 8.21239618345726 2.520247587702 0 0 0
139 47 2 -1.1794 0.7816626397880878 9.095481791712675 2.2762255886286424 0 0 0
114 38 1 0.5897 3.396733455970676 7.91048751433301 3.964598073199279 0 0 0
15 5 1 0.5897 4.5014716525388545 6.530472887730744 2.231619055772354 0 0 0
14 5 1 0.5897 4.2862285574104755 5.44342367608995 1.2000481781720733 0 0 0
132 44 1 0.5897 1.1263855045093174 7.50385818369114 5.111345342443502 0 0 0
19 7 2 -1.1794 1.098152156701096 6.297540869822624 2.102636911290505 0 0 0
126 42 1 0.5897 4.617149939215756 9.660645151786259 3.4049448195976617 0 0 0
112 38 2 -1.1794 4.21012016310744 7.989696950579084 3.4662039582596913 0 0 0
674 225 1 0.5897 2.1697338495828125 5.839444103943284 0.7746494026041527 0 0 1
140 47 1 0.5897 1.276079560966927 9.672014206358034 2.8588682842633477 0 0 0
20 7 1 0.5897 1.3587335157500469 5.708627073337091 2.810868919331771 0 0 0
130 44 2 -1.1794 2.0614150846765424 7.701243311851721 5.16621596305973 0 0 0
113 38 1 0.5897 4.883895092386119 7.640051295070863 4.049350790454523 0 0 0
111 37 1 0.5897 3.354658836832458 9.496760622653767 0.3321333281774424 0 0 0
13 5 2 -1.1794 4.849106388666425 5.689653068109484 1.9340969959131653 0 0 0
142 48 2 -1.1794 5.074256680898781 9.044214003171792 0.44134124146200815 0 0 0
21 7 1 0.5897 0.21316386162531842 6.016436461058795 1.870180625385535 0 0 0
337 113 2 -1.1794 4.717572828507555 5.819573681679741 8.449583540549837 0 0 0
464 155 1 0.5897 1.4906531871180653 9.21938232604093 8.354650095136398 0 0 0
468 156 1 0.5897 4.305372443045468 9.324878249796765 7.343371491546473 0 0 0
437 146 1 0.5897 4.2566341984216125 7.312444233683964 9.44180322144213 0 0 0
339 113 1 0.5897 4.201326918297355 5.6832333023490245 7.655110777072989 0 0 0
435 145 1 0.5897 2.2393073723050114 9.077467806483769 6.345995162786952 0 0 0
433 145 2 -1.1794 2.573325175453748 9.558452800330372 7.1032158032472195 0 0 0
463 155 2 -1.1794 0.8670881039819712 9.036713058161649 9.05754700707996 0 0 0
345 115 1 0.5897 1.2587436550614624 7.157737084305731 8.793611920488472 0 0 0
25 9 2 -1.1794 3.003609096986332 5.504186599693979 6.420155478776987 0 0 0
343 115 2 -1.1794 1.2792814687290244 6.2505274246057985 8.48879174901011 0 0 0
344 115 1 0.5897 1.4335285046249677 5.734791404803535 9.280339030641223 0 0 0
26 9 1 0.5897 2.270307720592733 5.779299321538172 6.970484210150928 0 0 0
438 146 1 0.5897 4.147362570620572 8.659348527804045 10.124506837930516 0 0 0
131 44 1 0.5897 2.4330740404136777 6.968028468533363 5.656728281684319 0 0 0
436 146 2 -1.1794 3.894027503712027 7.740877666296179 10.217205727834475 0 0 0
757 253 2 -1.1794 2.635809947282506 9.489139335331975 14.086117573424742 0 0 0
533 178 1 0.5897 0.2798922463707878 7.616375455429089 11.688333322898883 1 0 0
351 117 1 0.5897 3.5808314676864788 5.428380835492186 14.143280722130259 0 0 0
759 253 1 0.5897 2.444210553827099 8.974180945148529 13.302273619994358 0 0 0
668 223 1 0.5897 1.6663807912184037 5.811534331148123 15.026083295167616 0 0 0
454 152 2 -1.1794 2.130623992892133 7.602129267033399 12.162489692197214 0 0 0
455 152 1 0.5897 2.7885754047504787 7.651461703074134 11.468991550233618 0 0 0
456 152 1 0.5897 2.346977254328857 6.802460762604245 12.642143522831935 0 0 0
792 264 1 0.5897 4.527860301630424 9.125977898368482 14.157872291076645 0 0 0
349 117 2 -1.1794 2.758521396837428 5.407697805018708 13.653742352003482 0 0 0
789 263 1 0.5897 1.3312032627268526 8.913891441141415 15.343831336469925 0 0 0
661 221 2 -1.1794 4.898012578855276 5.470592232679394 15.409111013040004 0 0 0
788 263 1 0.5897 1.0806050076459106 9.245122241274192 16.799702288849353 0 0 0
663 221 1 0.5897 4.669378567920315 6.24244930215456 15.927090693215236 0 0 0
787 263 2 -1.1794 0.9011485170929306 8.582762454567217 16.132316263170544 0 0 0
779 260 1 0.5897 2.2396029344787345 8.18413715614173 19.314399012704996 0 0 0
780 260 1 0.5897 2.599470342935204 7.616671421309989 17.957731635130266 0 0 0
675 225 1 0.5897 2.7321564837796086 5.983097543831085 19.712588188879344 0 0 0
760 254 2 -1.1794 4.260000079097058 7.623249464326431 16.938074840694043 0 0 0
761 254 1 0.5897 4.3810358010819375 8.564290740822493 16.81095759254775 0 0 0
778 260 2 -1.1794 2.066119671003367 7.443347573203789 18.733469932646095 0 0 0
858 286 1 0.5897 0.32988287256174037 7.427226342387221 18.78930447825949 1 0 0
669 223 1 0.5897 1.0494902897817857 6.843838551360792 15.94580797269087 0 0 0
673 225 2 -1.1794 2.747851708880823 5.410750636989268 20.479727586574192 0 0 0
762 254 1 0.5897 4.785653261495247 7.4158652999433645 17.710716212622415 0 0 0
109 37 2 -1.1794 2.4319469536885894 9.56988380607457 20.424369960007596 0 0 -1
667 223 2 -1.1794 1.0296699384880557 5.910518827722936 15.733949589628823 0 0 0
123 41 1 0.5897 4.356887129586831 12.306023060817825 0.8775299929569489 0 0 0
118 40 2 -1.1794 2.0751103682583025 11.059484010198483 4.039431402853956 0 0 0
119 40 1 0.5897 3.0011794448452194 10.882756748296805 3.873857096136535 0 0 0
120 40 1 0.5897 1.8715134654393544 11.812454283146408 3.484518412568239 0 0 0
238 80 2 -1.1794 1.7167108172402912 14.042587007179321 4.991723924175238 0 0 0
783 261 1 0.5897 2.0392417260210247 12.638176247745589 0.8438154385712673 0 0 1
124 42 2 -1.1794 4.649889178239834 10.616644703783198 3.4414920222902805 0 0 0
240 80 1 0.5897 2.2586652825216795 14.210330470328618 4.220734375223351 0 0 0
127 43 2 -1.1794 1.0510398247668182 12.8902020303934 2.2221293088376513 0 0 0
129 43 1 0.5897 1.0506488460042882 13.810236084902126 2.486519373423608 0 0 0
222 74 1 0.5897 4.1912027673521655 13.803338344448573 2.483442803895833 0 0 0
220 74 2 -1.1794 3.7169192767545467 14.262676972078713 3.1765279375414806 0 0 0
122 41 1 0.5897 4.994845311942561 11.742232105515633 2.12941603201632 0 0 0
121 41 2 -1.1794 5.040329850876059 12.4824155695612 1.5241041010019736 0 0 0
188 63 1 0.5897 0.6229324865506787 10.933709782538982 5.0366227047010135 1 0 0
246 82 1 0.5897 4.81405154180193 14.01647881836982 4.530566109691138 0 0 0
128 43 1 0.5897 0.1932366230596756 12.755938561237627 1.8191260933703182 0 0 0
133 45 2 -1.1794 2.791911951283365 12.390572068660708 6.85836551969922 0 0 0
134 45 1 0.5897 2.1126278217152894 12.574328251499562 7.507280136820736 0 0 0
135 45 1 0.5897 3.614494021130343 12.48544394687332 7.338601486569261 0 0 0
239 80 1 0.5897 2.1746323344519074 13.344284330253442 5.459690667425807 0 0 0
446 149 1 0.5897 4.6355565562776535 13.22085164429536 8.970462821446246 0 0 0
434 145 1 0.5897 2.5244702620760964 10.478590013476756 6.843743105448251 0 0 0
450 150 1 0.5897 4.470708803461831 11.065188158818207 9.5338422580548 0 0 0
451 151 2 -1.1794 1.008766909933613 13.10532978485189 8.720095894981018 0 0 0
453 151 1 0.5897 1.1631321685567861 12.574031819704905 9.50125981094406 0 0 0
445 149 2 -1.1794 4.821215942655727 12.411226433680737 8.494658389154464 0 0 0
544 182 2 -1.1794 3.9952536340905827 14.378586814511923 10.205617076597633 0 0 0
443 148 1 0.5897 1.473969632416481 10.288574319003091 10.028400427421053 0 0 0
448 150 2 -1.1794 4.334288056878458 10.456371883307238 10.259832337379594 0 0 0
575 192 1 0.5897 5.08780692652938 14.705806733094686 6.750293123070752 0 0 0
758 253 1 0.5897 2.738681267528689 10.385189749102866 13.765402963343536 0 0 0
449 150 1 0.5897 4.847394112006287 10.822885931578497 10.980035519737179 0 0 0
457 153 2 -1.1794 2.6387377067845508 12.20113864768661 13.342590761492296 0 0 0
458 153 1 0.5897 1.9698655301863017 12.256769582520333 14.025079197526493 0 0 0
459 153 1 0.5897 3.4313661446514616 12.544775446768089 13.754814814408887 0 0 0
545 182 1 0.5897 3.1832797768759655 14.262305003190441 10.698994955166933 0 0 0
442 148 2 -1.1794 1.6866890759725608 11.035289275095039 10.588290900748087 0 0 0
562 188 2 -1.1794 1.6868386765301164 14.12216842115313 11.680417541706412 0 0 0
563 188 1 0.5897 1.8918784990847715 13.296074327115981 12.118456900940043 0 0 0
512 171 1 0.5897 0.33661004951129514 10.940774274769426 11.72557581214571 1 0 0
769 257 2 -1.1794 4.867613040375606 12.645476522012261 14.916412702987156 0 0 0
444 148 1 0.5897 2.6099706723102605 10.91391024428619 10.809744041278623 0 0 0
564 188 1 0.5897 2.003556585994315 14.797226648442052 12.28067958687106 0 0 0
546 182 1 0.5897 4.689423820404568 14.247084412331809 10.851452806927497 0 0 0
775 259 2 -1.1794 0.7128208328644947 12.387537647054735 15.38542854101721 0 0 0
766 256 2 -1.1794 1.652581053998214 10.759803688031583 17.481703112999064 0 0 0
767 256 1 0.5897 1.1725357550865134 10.974238625714289 18.281618606209058 0 0 0
768 256 1 0.5897 1.3560199647462736 11.40799833553169 16.842780298776205 0 0 0
772 258 2 -1.1794 4.195861726913788 10.489468836732742 16.80505787153738 0 0 0
773 258 1 0.5897 3.3184648507060523 10.640781221128826 17.156534818713233 0 0 0
774 258 1 0.5897 4.333465321119487 11.206692485424966 16.18619292848127 0 0 0
965 322 1 0.5897 0.5588661445689382 14.040850270525377 19.01150782376562 1 0 0
869 290 1 0.5897 3.6508109139457265 14.209039914995834 17.4852172296457 0 0 0
868 290 2 -1.1794 4.431323771114793 14.386224202715056 16.96017844466371 0 0 0
886 296 2 -1.1794 2.2080001648663288 14.12323906995909 18.590626159822683 0 0 0
888 296 1 0.5897 2.3710854695318413 13.375542626644135 19.1656899596398 0 0 0
781 261 2 -1.1794 2.636029445425831 12.320534376258864 20.502332958380457 0 0 0
771 257 1 0.5897 4.80620654954856 13.386005741974529 15.519888622069262 0 0 0
782 261 1 0.5897 2.4418347447217044 11.385936527007106 20.430341057807865 0 0 0
887 296 1 0.5897 2.313123175964948 14.888415740211178 19.156130196276287 0 0 0
777 259 1 0.5897 0.7271897106680669 13.339226951726532 15.487617360299584 0 0 0
249 83 1 0.5897 1.4750651291181858 15.815587146825601 1.7776184067113239 0 0 0
248 83 1 0.5897 1.2426368469175222 16.446922703472186 3.1338928590677404 0 0 0
890 297 1 0.5897 2.156004523065934 18.866485627705003 0.37733245882437155 0 0 1
235 79 2 -1.1794 0.961420646616102 19.219431856831072 1.697509785456125 0 0 0
226 76 2 -1.1794 2.184566779897729 17.928168324729246 3.875502006866589 0 0 0
227 76 1 0.5897 1.9287768379653252 18.458509238554193 3.120763243429063 0 0 0
247 83 2 -1.1794 0.9271940541693475 15.748964467887774 2.559722751056883 0 0 0
233 78 1 0.5897 4.9658077311937125 17.37758896830039 2.7387715560680608 0 0 0
230 77 1 0.5897 4.552285064395905 18.55332528328873 0.6212382366337073 0 0 0
232 78 2 -1.1794 4.670412102244621 16.94242368665092 3.538569744322416 0 0 0
228 76 1 0.5897 1.408779229182285 17.91867388078582 4.4361596574063205 0 0 0
234 78 1 0.5897 3.8509917029709313 17.38336757025615 3.763046045751222 0 0 0
229 77 2 -1.1794 4.896997373958415 18.72111919797607 1.498346201933604 0 0 0
221 74 1 0.5897 3.9695590066608597 15.180166180336727 3.0728812148517837 0 0 0
217 73 2 -1.1794 2.4927676611322815 16.00546162525747 0.3492616943172794 0 0 0
219 73 1 0.5897 3.419500094817454 15.804258778717756 0.47944227291108016 0 0 0
576 192 1 0.5897 4.1083975548499385 15.62767838681946 7.44526646819753 0 0 0
559 187 2 -1.1794 1.0336227916926775 19.333485616942824 8.878893434899044 0 0 0
572 191 1 0.5897 0.8686706429984058 16.311247958163253 9.640487572458138 0 0 0
241 81 2 -1.1794 2.7044124404160543 18.69590299330773 6.787451556104767 0 0 0
242 81 1 0.5897 2.555795899143986 17.750276318659342 6.778868391199719 0 0 0
243 81 1 0.5897 2.0688118940214775 19.033037803038095 7.4188341723905715 0 0 0
541 181 2 -1.1794 2.4860332094241295 15.948718342418983 6.849844482766103 0 0 0
542 181 1 0.5897 1.798929862459815 15.876449153371876 7.5123655452348475 0 0 0
558 186 1 0.5897 4.704150472574953 17.58967683257738 9.885901361569957 0 0 0
555 185 1 0.5897 4.06748324539208 18.766691167902092 7.829394922210089 0 0 0
543 181 1 0.5897 2.2302021733870108 15.325546544708367 6.169758130434456 0 0 0
571 191 2 -1.1794 0.5367866643926001 15.969149329928026 8.810348760667578 0 0 0
553 185 2 -1.1794 4.646919672230666 18.871288392585626 8.584094448000672 0 0 0
574 192 2 -1.1794 5.0077150127370675 15.303430633917232 7.493772810437039 0 0 0
573 191 1 0.5897 0.6114729018397487 15.018602214044535 8.8954372650316 0 0 0
885 295 1 0.5897 1.4185360689775 19.20440347517197 14.566644756685827 0 0 0
866 289 1 0.5897 3.376135848288743 15.96194526110644 13.973493208009362 0 0 0
879 293 1 0.5897 4.26201439122288 19.01129696008574 14.440313714691666 0 0 0
867 289 1 0.5897 1.9305506546331346 15.699866201714583 14.338959619808838 0 0 0
550 184 2 -1.1794 1.6084513403156235 17.394444024356336 10.950249426224136 0 0 0
552 184 1 0.5897 2.5626080686909543 17.32075395533867 10.930481897596264 0 0 0
565 189 2 -1.1794 2.8241498450449787 18.81544653353512 13.250414961923216 0 0 0
566 189 1 0.5897 2.445070386330615 17.989390678682486 12.94994965720542 0 0 0
567 189 1 0.5897 2.485704605724719 19.470845437596818 12.640302670319217 0 0 0
865 289 2 -1.1794 2.487479938617235 15.997400620295254 13.619518954081762 0 0 0
556 186 2 -1.1794 4.4621902479638464 17.125436317104175 10.687308555689592 0 0 0
877 293 2 -1.1794 4.825714207190007 19.098853672885173 15.208992572471633 0 0 0
557 186 1 0.5897 4.363152086714466 16.212923321387038 10.41550407476609 0 0 0
883 295 2 -1.1794 0.9030862753872909 19.18183988584405 15.372910176303641 0 0 0
551 184 1 0.5897 1.4162895646698943 18.16664385759918 10.41815857017339 0 0 0
881 294 1 0.5897 3.1961937840402443 17.246160675463013 17.29640582417956 0 0 0
897 299 1 0.5897 0.8843667697139226 15.734552963465148 16.24561829407626 0 0 0
895 299 2 -1.1794 0.7069646292867182 15.065379380213642 15.584510017661504 0 0 0
882 294 1 0.5897 4.149183022102983 16.11164152926937 16.985335770436805 0 0 0
880 294 2 -1.1794 4.115163511031639 17.061061909539088 17.10282025180163 0 0 0
874 292 2 -1.1794 1.3672619745194126 17.217529072974877 17.133878281975413 0 0 0
875 292 1 0.5897 0.8670237660269993 17.491745847423946 17.90254964446509 0 0 0
876 292 1 0.5897 1.3526002112080735 17.978913321160057 16.553857660775954 0 0 0
891 297 1 0.5897 2.27293178610022 19.047720695437448 19.215003580500536 0 0 0
878 293 1 0.5897 4.563335537049481 18.37858731410444 15.782320162530452 0 0 0
889 297 2 -1.1794 2.6786679966148474 18.599678448722536 19.957261476658957 0 0 0
218 73 1 0.5897 2.4889813006557953 16.884164723673827 20.305678077335834 0 0 -1
69 23 1 0.5897 6.797593141724847 2.025993493679261 1.7873997174123397 0 0 0
273 91 1 0.5897 7.681284045394844 0.3541780486314218 2.1441762827496653 0 1 0
68 23 1 0.5897 8.256547548857265 2.311895978480414 1.5016156705382613 0 0 0
67 23 2 -1.1794 7.650411914500033 2.108872233912497 2.214122929683488 0 0 0
46 16 2 -1.1794 8.15432963889333 4.262929436050492 3.872482164712158 0 0 0
47 16 1 0.5897 7.887559570396132 3.4687559712509413 3.4093723538358383 0 0 0
48 16 1 0.5897 7.538603450710874 4.333663975087256 4.601969495033975 0 0 0
34 12 2 -1.1794 5.260435272938215 2.297697647149698 0.7585005925233586 0 0 0
41 14 1 0.5897 9.871473472324537 1.010439652656062 3.951204550998476 0 0 0
58 20 2 -1.1794 8.582495569354252 0.9613438589822764 5.1346917445324065 0 0 0
9 3 1 0.5897 5.526326037436913 4.277749554770062 5.069351699280483 0 0 0
36 12 1 0.5897 5.646436753781826 3.0359605631744273 0.28700834327839253 0 0 0
29 10 1 0.5897 6.65360016825722 0.5963395931634199 5.169932414861875 0 0 0
8 3 1 0.5897 6.153972898415739 3.7976170742812907 6.360710674851852 0 0 0
391 131 2 -1.1794 7.416121673960653 2.4819301323226566 9.107243450044834 0 0 0
393 131 1 0.5897 7.339871875826317 1.5441493635411139 9.283615044479378 0 0 0
7 3 2 -1.1794 6.157510091421392 4.5293797432625444 5.743575900387419 0 0 0
361 121 2 -1.1794 9.156527362474353 2.818847995858488 7.029949603486574 0 0 0
392 131 1 0.5897 8.015804226991692 2.538234219636791 8.363280153305771 0 0 0
362 121 1 0.5897 9.180224902975073 3.750094096819064 6.809541719404055 0 0 0
59 20 1 0.5897 8.720512695504269 1.7184158628713295 5.704023854039065 0 0 0
359 120 1 0.5897 6.08224045308397 2.288776865726391 7.950640614112703 0 0 0
358 120 2 -1.1794 5.450350787475643 2.397697717338364 7.239917083191059 0 0 0
360 120 1 0.5897 5.474235385294716 1.5652595791910686 6.767870730757246 0 0 0
28 10 2 -1.1794 5.814990227691578 0.3017151461331512 5.5251855196747215 0 0 0
60 20 1 0.5897 8.669332435192494 0.20531129793195949 5.715382012902954 0 0 0
371 124 1 0.5897 7.665281564861903 3.683793817351646 10.207713299974747 0 0 0
352 118 2 -1.1794 5.642037016543715 0.864016764561736 12.477858253095246 0 0 0
353 118 1 0.5897 6.575391028326527 0.972532135647467 12.2953184502734 0 0 0
684 228 1 0.5897 5.326551923723096 3.340204546511486 14.091452811926702 0 0 0
377 126 1 0.5897 9.897548092314285 4.041489528203985 10.722645847562593 0 0 0
372 124 1 0.5897 7.253289094942779 4.494707103099135 11.418004210385519 0 0 0
685 229 2 -1.1794 9.031842691018786 3.093020769750802 13.736735398021917 0 0 0
382 128 2 -1.1794 8.306069759154388 1.131655235283569 11.976078547239537 0 0 0
383 128 1 0.5897 8.55111861271359 1.8296957851056663 12.583533417281057 0 0 0
384 128 1 0.5897 8.986158264124697 1.149761492162784 11.302712006361398 0 0 0
386 129 1 0.5897 9.058170557249104 4.837066681876587 13.518739177133417 0 0 0
686 229 1 0.5897 8.49714909726025 2.8195414977150985 14.48212573450246 0 0 0
370 124 2 -1.1794 7.935159558574007 4.425180525117941 10.749796577169295 0 0 0
354 118 1 0.5897 5.476863386757565 1.4327783958536597 13.22986885821311 0 0 0
331 111 2 -1.1794 5.999241323771599 4.565406066680672 12.667207132774918 0 0 0
332 111 1 0.5897 5.338069698492357 4.1787478319425 12.093087797397256 0 0 0
687 229 1 0.5897 9.926912998815252 2.8631778778474097 13.986304021334075 0 0 0
657 219 1 0.5897 6.6865544591618296 4.243603432751601 18.982847365215925 0 0 0
716 239 1 0.5897 7.648918336247853 1.0786807012747743 15.815944794423817 0 0 0
656 219 1 0.5897 5.18444105546509 4.147711373163604 18.820405699638606 0 0 0
37 13 2 -1.1794 9.359841760907344 2.754393419530434 20.365819219478446 0 0 -1
710 237 1 0.5897 9.032556848257359 4.745970581435913 19.609468636030897 0 0 0
38 13 1 0.5897 9.146440792900218 1.9731010768612403 19.855542931655606 0 0 -1
694 232 2 -1.1794 7.941178459260238 3.9408882566483334 17.645283451306554 0 0 0
695 232 1 0.5897 7.850880918238255 3.1828504604555485 17.06773348901617 0 0 0
676 226 2 -1.1794 5.893002007802975 0.48010665355246795 19.09086048111029 0 0 0
706 236 2 -1.1794 8.55598871842136 0.686571823993905 18.607655461318913 0 0 0
708 236 1 0.5897 7.605513234276173 0.7698196945369492 18.68457509195023 0 0 0
715 239 2 -1.1794 7.578116461286738 2.0314217819614866 15.755795472455532 0 0 0
655 219 2 -1.1794 5.8632959257920305 4.41347073304371 19.440727419575033 0 0 0
677 226 1 0.5897 5.35896657355172 0.7020217265867011 18.32806825175046 0 0 0
696 232 1 0.5897 7.77608219938371 4.694957472591758 17.079206246894906 0 0 0
702 234 1 0.5897 9.69617797740425 4.108792333718571 17.38152148915016 0 0 0
717 239 1 0.5897 6.654160573264655 2.1917701317022407 15.563883894378472 0 0 0
35 12 1 0.5897 5.297947160457398 1.5702218792485105 20.473638560226952 0 0 -1
143 48 1 0.5897 5.681455961973905 9.167939966442281 1.1709063020126564 0 0 0
176 59 1 0.5897 7.32779926485351 7.793022446085838 2.3339897971437384 0 0 0
57 19 1 0.5897 7.872099802656015 5.509407188112204 2.644011378343979 0 0 0
711 237 1 0.5897 8.547889865037716 5.581094480416707 0.43937120396476276 0 0 1
175 59 2 -1.1794 7.297008507444963 8.747178742674729 2.263203704986125 0 0 0
55 19 2 -1.1794 7.651235633427251 5.941972403195788 1.8191335650753437 0 0 0
56 19 1 0.5897 6.731385630100646 5.72203290371319 1.6716049419755967 0 0 0
177 59 1 0.5897 7.946363838366558 8.95917338867208 1.5926204375200381 0 0 0
166 56 2 -1.1794 8.466429167369661 7.757086897356766 5.031197562146059 0 0 0
149 50 1 0.5897 9.879035090028994 7.564067748961222 3.965752136767378 0 0 0
147 49 1 0.5897 9.9744182644821 9.428337970297635 0.47319273204538875 0 0 0
145 49 2 -1.1794 9.053657731961009 9.621788396545755 0.2970228903587425 0 0 0
469 157 2 -1.1794 9.165696441137225 9.570527532512555 6.968451504958629 0 0 0
501 167 1 0.5897 6.727583796188575 9.049094206901092 8.684750805642961 0 0 0
380 127 1 0.5897 7.623694256000896 7.073129678694297 8.808024616238335 0 0 0
168 56 1 0.5897 8.737767597001415 8.48283682657387 5.593322472752326 0 0 0
499 167 2 -1.1794 7.542000965781159 8.817578274780445 9.131289843770373 0 0 0
467 156 1 0.5897 5.4503059109557945 8.460602576266607 6.85943339007269 0 0 0
381 127 1 0.5897 7.610629769357891 5.6858283040391076 9.414185025907345 0 0 0
466 156 2 -1.1794 5.228510618805814 9.130832202994473 7.505897623151094 0 0 0
500 167 1 0.5897 7.713531183331362 9.556024091270867 9.715753075084796 0 0 0
470 157 1 0.5897 8.744904291574189 9.28176555505977 7.778299736509721 0 0 0
379 127 2 -1.1794 7.4920355554418965 6.151285923009381 8.586172114073293 0 0 0
62 21 1 0.5897 8.566420370600625 5.734705367925844 7.283917831347018 0 0 0
338 113 1 0.5897 5.626387216032995 5.814173313644222 8.149102117480869 0 0 0
137 46 1 0.5897 5.951887545915073 6.348087796278472 5.668849030584801 0 0 0
61 21 2 -1.1794 9.227427376617474 5.577315105921088 6.609692187106252 0 0 0
136 46 2 -1.1794 5.873687997794914 7.298204759427666 5.582147102106569 0 0 0
167 56 1 0.5897 8.716680705321126 6.970936339938277 5.5166464239367 0 0 0
138 46 1 0.5897 6.7444879456867985 7.586749660501305 5.308816542915322 0 0 0
705 235 1 0.5897 8.135934847123313 5.886182776952506 15.210256203633637 0 0 0
794 265 1 0.5897 9.164745620221654 8.790035106809228 13.340633243996496 0 0 0
385 129 2 -1.1794 9.275596507623892 5.740671848658166 13.748054678060603 0 0 0
491 164 1 0.5897 9.229815016330601 7.801441260983845 11.158296337838962 0 0 0
791 264 1 0.5897 5.947740750462514 8.932494094507128 14.646206104787995 0 0 0
793 265 2 -1.1794 9.302789129250035 9.37480633800325 14.085819080892508 0 0 0
333 111 1 0.5897 5.927414680623579 5.507820005523952 12.515428028738873 0 0 0
387 129 1 0.5897 8.973546489513671 6.2572438997243 13.000901178697578 0 0 0
460 154 2 -1.1794 6.032197211687548 7.258146865414714 11.943889026270853 0 0 0
461 154 1 0.5897 5.8544686210483725 7.957599950867909 12.572789645817654 0 0 0
492 164 1 0.5897 7.866772761190775 7.816291946679411 11.81698257403046 0 0 0
490 164 2 -1.1794 8.802262662267815 7.768861415677722 12.014119405105196 0 0 0
790 264 2 -1.1794 5.438131409907756 9.136535890612953 13.862012501880967 0 0 0
462 154 1 0.5897 5.405336063562468 7.406950863217452 11.23594681692837 0 0 0
824 275 1 0.5897 7.933570026243501 8.945563215726612 15.191681087476088 0 0 0
814 272 2 -1.1794 8.432210526476904 7.835412202371326 18.507887239718343 0 0 0
786 262 1 0.5897 6.796089357660343 7.330564126453298 18.88730538635958 0 0 0
815 272 1 0.5897 8.780093431954297 7.079357550262781 18.98085215941417 0 0 0
825 275 1 0.5897 7.381432817345645 7.818080164727035 16.037860190132047 0 0 0
785 262 1 0.5897 5.9242013646536 6.158645977444967 19.285497950206654 0 0 0
823 275 2 -1.1794 7.236148958350461 8.737225665691188 15.813335507674857 0 0 0
816 272 1 0.5897 8.58878652540303 8.577080062982203 19.092485985103323 0 0 0
784 262 2 -1.1794 5.905657450126233 7.10727457081117 19.15848807476612 0 0 0
703 235 2 -1.1794 7.491894825891359 5.999954726463138 15.909217893097251 0 0 0
704 235 1 0.5897 6.6463632168530955 5.86888684584647 15.480084703873699 0 0 0
144 48 1 0.5897 5.471642002395682 8.35185053896764 20.249302955126602 0 0 -1
804 268 1 0.5897 7.846505530176691 9.871376396955998 17.060045288430842 0 0 0
709 237 2 -1.1794 9.074700237391337 5.628551787200212 19.977749408633414 0 0 0
154 52 2 -1.1794 8.002201887141709 10.792523106000775 3.9380512464355943 0 0 0
275 92 1 0.5897 7.393016702674758 14.165520250022626 4.889688224322583 0 0 0
156 52 1 0.5897 8.955881556125926 10.746737695560025 3.8698598530289177 0 0 0
163 55 2 -1.1794 7.670925792338079 12.923060619920422 2.3738954178606426 0 0 0
164 55 1 0.5897 6.756157153430587 12.804668762601576 2.1180873906524207 0 0 0
165 55 1 0.5897 7.891386791024895 12.124330295068923 2.8532326051101777 0 0 0
819 273 1 0.5897 9.038197899502217 12.597793376178164 0.8806841100938635 0 0 1
276 92 1 0.5897 8.776004796706939 14.379964665436049 4.312332279286603 0 0 0
285 95 1 0.5897 7.630640353138082 14.722547768200796 2.2991414050942858 0 0 0
155 52 1 0.5897 7.687376663280962 10.07904460048432 3.3829289314054725 0 0 0
274 92 2 -1.1794 8.270797380420476 14.46971715723999 5.120418715151428 0 0 0
244 82 2 -1.1794 5.528469271669847 13.891987964970967 5.155376805084009 0 0 0
125 42 1 0.5897 5.114826331622385 10.8099351249444 4.255580402475393 0 0 0