LAMMPS data file via write_data, version 30 Jul 2021, timestep = 8500000

1008 atoms
2 atom types
672 bonds
1 bond types
336 angles
1 angle types

-3.1247034380284724 14.73470243757902 xlo xhi
-0.1449169165655011 22.724915916556945 ylo yhi
-0.013363815226499653 19.243361815226628 zlo zhi
-0.29372118357743504 -6.450877016350105 -0.1022647465327974 xy xz yz

Masses

1 1.008
2 15.999

Pair Coeffs # lj/cut/tip4p/long/omp

1 0 0
2 0.21084 3.1668

Bond Coeffs # harmonic/omp

1 450 0.9572

Angle Coeffs # harmonic/omp

1 55 104.52

Atoms # full

55 19 2 -1.1794 -0.4614657688879822 4.389255206127563 3.5524497094941596 0 0 0
56 19 1 0.5897 -1.1481478732427626 3.943733176979654 3.0560898547129436 0 0 0
57 19 1 0.5897 0.2956870630706634 4.390693867199009 2.9667732495268164 0 0 0
121 41 2 -1.1794 -2.3460486206958224 2.8296490379456873 2.157354424432458 1 0 0
122 41 1 0.5897 -2.4710337858693197 2.404312082584221 1.3089950594024347 1 0 0
21 7 1 0.5897 1.1272733252956515 2.059155788117226 1.127991136187939 0 0 0
31 11 2 -1.1794 1.4873258858201028 0.7950732068579365 2.3930237638583067 0 0 0
86 29 1 0.5897 -1.9785242742260327 1.7531647506518948 3.7935782306316694 1 0 0
32 11 1 0.5897 1.4562752868177204 1.193335399770843 3.2628815182475512 0 0 0
46 16 2 -1.1794 2.101522499023706 4.538779404826317 2.3274909883372974 0 0 0
123 41 1 0.5897 -3.2260180022354086 2.8843883844947533 2.530214582824723 1 0 0
48 16 1 0.5897 2.2327734139573137 5.111176643952611 3.083396296942458 0 0 0
482 161 1 0.5897 -1.0987943183826703 -0.05054776271012315 1.1442363267508016 1 1 0
71 24 1 0.5897 3.1511861066803037 0.28128172043088784 1.789841822300097 0 0 0
53 18 1 0.5897 4.588213509841924 2.540790587423191 3.1783209103921246 0 0 0
158 53 1 0.5897 -4.093705965972686 4.363874415220667 4.600380549235 1 0 0
33 11 1 0.5897 0.7016888522651508 0.24975218854138231 2.3505051733767397 0 0 0
78 26 1 0.5897 0.31910408314533933 2.6930973942596714 4.491854239616679 0 0 0
114 38 1 0.5897 -3.627667896376358 5.08442854248504 1.8567429713633559 1 0 0
19 7 2 -1.1794 0.985193777558738 2.5114121805823286 0.29635857190284154 0 0 0
54 18 1 0.5897 3.241123025528899 3.1217324277936265 2.8034797464992036 0 0 0
52 18 2 -1.1794 3.696144890422085 2.656672464977341 3.505711591831315 0 0 0
70 24 2 -1.1794 3.9141752941485413 0.1642835997613855 1.223739642569121 0 0 0
47 16 1 0.5897 2.26910632430108 5.099474453345134 1.5699652623836011 0 0 0
18 6 1 0.5897 4.78523459984034 3.8651138566710443 0.20852001205039064 0 0 0
16 6 2 -1.1794 5.388328923062685 4.539500171388506 0.5213434519741633 0 0 0
527 176 1 0.5897 3.7663964667225764 1.7107105344055404 0.3971942065079211 0 0 1
85 29 2 -1.1794 -2.0229124484127254 1.3378299940236786 4.654871763368285 1 0 0
602 201 1 0.5897 -0.610447256601109 5.248711917834301 0.11573383338915066 1 0 1
72 24 1 0.5897 4.601708940820686 -0.15248320127794524 1.8097958565860317 0 0 0
163 55 2 -1.1794 -2.233539683227432 1.1537407258640264 -0.007256100558594892 1 0 0
59 20 1 0.5897 1.9214326652391573 3.4756512017793053 5.800783777718526 0 0 0
157 53 2 -1.1794 -3.632565463412816 5.113398709285133 4.9770948411829705 1 0 0
5 2 1 0.5897 3.3623552691595684 0.04299689406539575 5.338583723434074 0 0 0
34 12 2 -1.1794 0.22939646642297973 1.0623425109772657 7.386579069843859 0 0 0
35 12 1 0.5897 0.3613941001621721 1.711965279632994 8.077110145703791 0 0 0
36 12 1 0.5897 -0.6833157373213243 0.7904983279984464 7.483993192068042 0 0 0
45 15 1 0.5897 0.5543127887891144 4.925584089101668 6.877499538967143 0 0 0
98 33 1 0.5897 -4.422996121899419 4.754513039949845 8.409481727161499 1 0 0
43 15 2 -1.1794 -0.3872965273633624 4.982791508115912 7.040389455629915 0 0 0
58 20 2 -1.1794 2.1968024468219234 4.150978254207115 6.420754268210162 0 0 0
124 42 2 -1.1794 -4.97256628610133 2.029117459563283 7.295596284101808 1 0 0
60 20 1 0.5897 2.697149679650302 3.6771091996117455 7.085261371457822 0 0 0
90 30 1 0.5897 -4.901471627755828 1.2125629045403865 5.816260075663881 1 0 0
126 42 1 0.5897 -4.149269734146195 2.4957717880296495 7.15135870868668 1 0 0
159 53 1 0.5897 -2.935786317704726 4.725187207639637 5.5065316821876635 1 0 0
134 45 1 0.5897 -2.2592787992018444 2.6465649033762606 5.920513740124463 1 0 0
133 45 2 -1.1794 -2.41653674606825 3.123058563371252 6.73564959865592 1 0 0
69 23 1 0.5897 -2.606016489205978 0.8288578078694377 8.686697642895448 0 0 0
135 45 1 0.5897 -1.6214847803076085 3.6392849064882604 6.869129166086079 1 0 0
77 26 1 0.5897 0.5599616637300304 1.7391480565379747 5.642606650981744 0 0 0
669 223 1 0.5897 -5.110695502997177 1.4801195153335793 9.139069598661768 1 0 0
68 23 1 0.5897 -3.1500708185805064 -0.154895770501057 7.672643984606314 0 0 0
76 26 2 -1.1794 1.0036657245796947 2.1742638968753596 4.914572531341292 0 0 0
522 174 1 0.5897 2.1041406044600635 5.203409789920374 9.26412110399296 0 0 0
606 202 1 0.5897 -6.070883806867808 4.451946674918697 9.20428588034169 1 0 0
44 15 1 0.5897 -0.456758761642706 5.371461469284976 7.912358705673828 0 0 0
67 23 2 -1.1794 -2.340357682502474 0.11625157169492628 8.105411398693157 0 0 0
97 33 2 -1.1794 -4.203337731031215 4.427167736227796 9.28180662521121 1 0 0
6 2 1 0.5897 4.024018157101137 1.3455008813995601 4.941263424766779 0 0 0
11 4 1 0.5897 2.3807273255328703 5.479994760010176 5.0870335442556325 0 0 0
87 29 1 0.5897 -2.958454805106527 1.207416120542105 4.810398615040628 1 0 0
574 192 2 -1.1794 0.550393698632103 0.19583686585272353 11.382861952673775 0 0 0
626 209 1 0.5897 -5.869216794204454 1.5776201886793746 12.872032746192543 1 0 0
22 8 2 -1.1794 0.3023984632711647 2.539395181622942 9.799103790304866 0 0 0
556 186 2 -1.1794 0.9046678215167523 3.3111497115727424 12.799763962002183 0 0 0
536 179 1 0.5897 -2.3564107462874597 1.4531547047416429 13.019675199010324 0 0 0
550 184 2 -1.1794 -1.4698483634953226 4.642239556156175 12.13599352267719 0 0 0
627 209 1 0.5897 -6.7013729639927515 2.7106380967285753 12.309656871226196 1 0 0
589 197 2 -1.1794 -5.286480041208568 0.6759509016678689 14.342803678017404 1 0 0
535 179 2 -1.1794 -2.08462224674295 0.9105234198074925 12.27946163569783 0 0 0
523 175 2 -1.1794 -2.4533964220062705 2.299813099950802 9.820479896757108 0 0 0
537 179 1 0.5897 -2.331342691692231 1.4183140805631724 11.506370276122947 0 0 0
561 187 1 0.5897 -3.5288098151031972 3.27805427257654 13.79756898503231 0 0 0
576 192 1 0.5897 -0.22850715263180366 0.35715972401501306 11.915411581411057 0 0 0
663 221 1 0.5897 -7.680536648003982 4.350119453737131 14.299591501514751 1 0 0
99 33 1 0.5897 -4.009356762721662 5.213860197384348 9.791487313212462 1 0 0
557 186 1 0.5897 0.7032535142714353 2.449010037269431 13.16377922534125 0 0 0
558 186 1 0.5897 0.054722030275017985 3.6659915155133427 12.53859525016662 0 0 0
559 187 2 -1.1794 -3.8845648373356276 3.8447824707457436 13.112958270408217 0 0 0
560 187 1 0.5897 -4.459639776085041 3.273762502600645 12.60344727906907 0 0 0
625 209 2 -1.1794 -5.9542732290869465 2.1472847399540167 12.10744931481442 1 0 0
668 223 1 0.5897 -5.626269518728537 1.4153226983337015 10.56097733708115 1 0 0
552 184 1 0.5897 -2.2822549664043326 4.171420578599103 12.32228694137027 0 0 0
23 8 1 0.5897 0.5623769534036764 1.921020031488304 10.482049620185295 0 0 0
587 196 1 0.5897 -1.2492960539868307 5.487541849584073 10.27202040772509 0 0 0
508 170 2 -1.1794 0.7922145122216451 1.1342318986636124 14.25342165202823 0 0 0
525 175 1 0.5897 -1.5004098288386527 2.3713069782298763 9.764325495560406 0 0 0
662 221 1 0.5897 -6.814540376725214 5.374844356588013 13.598072691538333 1 0 0
667 223 2 -1.1794 -5.525227921576208 0.8891846751813057 9.767753837106131 1 0 0
24 8 1 0.5897 0.9107930548327978 3.2722612582722137 9.89472574015725 0 0 0
520 174 2 -1.1794 2.3097506772765186 4.526469375467444 9.909008549209837 0 0 0
551 184 1 0.5897 -1.3304575037237498 5.194286326695668 12.905460347432479 0 0 0
524 175 1 0.5897 -2.7726095712377754 3.17867450699335 9.615243536241557 0 0 0
629 210 1 0.5897 -8.6590240920873 2.97139679611757 16.491089965566474 1 0 0
547 183 2 -1.1794 -3.6747044027130693 4.563587310260113 16.984018515165467 0 0 0
571 191 2 -1.1794 -5.627362991471147 -0.07112514225127506 18.102002226883677 0 0 0
601 201 2 -1.1794 -7.159337120749532 4.406455340008718 18.773218134212392 1 0 0
84 28 1 0.5897 -3.5762010802043163 5.362399333556716 18.62448819550709 0 0 -1
20 7 1 0.5897 -5.579822204550718 1.705800579787688 18.91390085921101 0 0 -1
904 302 2 -1.1794 -0.7108188958411672 -0.23697862659822205 17.839450535272654 0 1 0
639 213 1 0.5897 -5.847975191587578 3.4515742318655964 15.483834180120878 1 0 0
538 180 2 -1.1794 -3.2877006100994457 0.678995745319338 16.991745740846575 0 0 0
540 180 1 0.5897 -4.111415601667641 0.20340206716593157 17.09966934430416 0 0 0
582 194 1 0.5897 -1.9461440385172057 2.9356801163320645 15.369205191730565 0 0 0
539 180 1 0.5897 -3.3594873422964886 1.4223001625002514 17.590582168931448 0 0 0
638 213 1 0.5897 -6.45327867206637 2.5526601224610808 16.541005336582778 1 0 0
549 183 1 0.5897 -4.274579185422821 3.877659085337104 16.690706242180838 0 0 0
562 188 2 -1.1794 -0.9994708854742829 3.921015913703463 16.485013764378692 0 0 0
563 188 1 0.5897 -0.8105084513651883 4.577173805813766 15.81414294971976 0 0 0
564 188 1 0.5897 -1.7735198032630928 4.256485577071411 16.937408146423223 0 0 0
164 55 1 0.5897 -8.412842630787317 1.6235783425051424 18.531660120104064 1 0 -1
628 210 2 -1.1794 -8.191526621693129 2.19432254488885 16.79773308131616 1 0 0
637 213 2 -1.1794 -5.623707494262376 2.766763387606098 16.114014668831793 1 0 0
165 55 1 0.5897 -9.36340551032249 0.49438174567541826 18.868648935457557 1 0 -1
581 194 1 0.5897 -2.7253703348692246 1.639496990338298 15.439455856866854 0 0 0
590 197 1 0.5897 -5.308928858399387 1.3082032129930963 15.061129237110498 1 0 0
630 210 1 0.5897 -8.313027184030592 1.5503216158084463 16.10007569873315 1 0 0
591 197 1 0.5897 -4.591209298554997 0.06353276006059225 14.583755091909476 1 0 0
580 194 2 -1.1794 -2.4576143360685716 2.329858587676653 14.83279737755514 0 0 0
548 183 1 0.5897 -3.660922306179131 5.19432099287445 16.264064212023868 0 0 0
101 34 1 0.5897 -8.925685743652558 4.512264589447507 18.81463680817629 1 0 -1
603 201 1 0.5897 -6.464575947646137 3.7985954914343165 19.026843565898005 1 0 0
905 302 1 0.5897 -1.5923798017775734 -0.03785218335339821 17.52365810491127 0 1 0
526 176 2 -1.1794 -2.7584566115371905 2.4162894145335265 19.145679213111222 0 0 0
593 198 1 0.5897 -7.375516420457716 0.11937972125229329 14.524120389099599 1 0 0
661 221 2 -1.1794 -6.999752073432489 5.00355008207701 14.460691204087158 1 0 0
528 176 1 0.5897 -3.6833341905876464 2.65539791457676 19.20811165868622 0 0 0
289 97 2 -1.1794 -2.597350807910911 10.340115943048527 2.0651876624334773 1 0 0
332 111 1 0.5897 -1.9429282735540918 9.359600847746089 0.7637609750326559 1 0 0
255 85 1 0.5897 -2.4617360026646455 9.044445868920933 3.3019577221435874 1 0 0
147 49 1 0.5897 -0.8494956335251507 7.325358922938375 0.7204466860326001 1 0 0
146 49 1 0.5897 -1.4978328935491754 6.4513669350759875 1.7729934134450982 1 0 0
112 38 2 -1.1794 -3.2755794027022773 5.852814143468242 2.3061294009572455 1 0 0
145 49 2 -1.1794 -0.6549251822380513 6.64080341549382 1.3607090192860731 1 0 0
10 4 2 -1.1794 2.2902312514804803 6.2595442015114955 4.538878063681587 0 0 0
113 38 1 0.5897 -3.4251303499184584 5.676974409622604 3.23508578701143 1 0 0
291 97 1 0.5897 -3.4743789686899484 10.631373597546768 2.3149780912256874 1 0 0
290 97 1 0.5897 -2.024510133026519 11.067552563665837 2.3082225632870332 1 0 0
188 63 1 0.5897 0.8618017304010026 9.715977004778537 1.2857406430035307 0 0 0
9 3 1 0.5897 -0.5348175375401318 6.029676989409535 4.239720855967453 0 0 0
200 67 1 0.5897 0.8173523829631 7.672758462166339 2.3952053165728953 0 0 0
199 67 2 -1.1794 1.3397742810036517 8.450234696194768 2.5925543499996744 0 0 0
245 82 1 0.5897 0.7912063821730211 9.360887395266294 3.9174691466197658 0 0 0
238 80 2 -1.1794 4.003387156030837 7.744872219992219 1.9239992800815713 0 0 0
201 67 1 0.5897 2.2369966739457627 8.19856881985892 2.3733248356984857 0 0 0
240 80 1 0.5897 3.82812232608321 7.0400130080648955 1.300514006468086 0 0 0
82 28 2 -1.1794 2.6848968071470436 6.010776776720034 0.1306369141616542 0 0 0
187 63 2 -1.1794 0.9164059766822685 10.316442482599985 0.5422385458249384 0 0 0
220 74 2 -1.1794 3.2334822761052617 10.928282899677235 3.4371988941129317 0 0 0
12 4 1 0.5897 1.3851115656965227 6.542077605871089 4.670762571519889 0 0 0
221 74 1 0.5897 4.1196365727716495 10.778697915029422 3.107435135312457 0 0 0
239 80 1 0.5897 4.070325262578553 8.532193285202192 1.3836327733641203 0 0 0
189 63 1 0.5897 1.853652494984794 10.477100008513924 0.43192933918325244 0 0 0
174 58 1 0.5897 3.506538922159928 9.224328943674118 4.58402218191863 0 0 0
254 85 1 0.5897 -1.8101344351673416 8.012297769058373 4.197808861669918 1 0 0
7 3 2 -1.1794 -0.4650673211202796 6.820892166399143 4.773929932364959 0 0 0
253 85 2 -1.1794 -2.5957017073235864 8.55270779548505 4.112234769470819 1 0 0
244 82 2 -1.1794 0.4179126015136556 10.010779744952846 4.512921692899234 0 0 0
257 86 1 0.5897 -4.420561294261209 8.562706372260333 4.445463922457742 1 0 0
694 232 2 -1.1794 3.688231380259161 10.059426777737722 0.3347800633506445 0 0 1
696 232 1 0.5897 4.32076555649961 10.777949724648503 0.3358762873581864 0 0 1
331 111 2 -1.1794 -1.6646815784053954 8.775984514826492 0.05792721594615462 1 0 0
224 75 1 0.5897 -0.5112713203273893 11.26075507284411 3.5752466423232456 0 0 0
691 231 2 -1.1794 -2.2427579950502876 9.642639170547401 9.370670478489917 0 0 0
301 101 2 -1.1794 -2.6372733870561897 10.360701269242377 6.292250966702083 1 0 0
110 37 1 0.5897 -4.346293787552015 5.980165253275038 6.340601338974356 1 0 0
294 98 1 0.5897 -5.044287027430583 9.728198166919292 8.348466297759874 1 0 0
109 37 2 -1.1794 -4.410347030496081 6.499607225534879 7.142045062637405 1 0 0
837 279 1 0.5897 -6.057308881247028 7.97613465872516 9.061935386882737 1 0 0
64 22 2 -1.1794 2.2237491553119177 7.08028342648846 8.083848157169687 0 0 0
237 79 1 0.5897 -2.1349934956293395 8.381117746665188 8.309718768518971 0 0 0
228 76 1 0.5897 1.8402601842058761 11.216183139626464 5.552104008736917 0 0 0
111 37 1 0.5897 -5.334741266735369 6.7422725321415795 7.197466788326961 1 0 0
292 98 2 -1.1794 -5.126186768388401 10.203689472221297 7.521699635766121 1 0 0
191 64 1 0.5897 0.5822785204198215 9.582438802175004 8.692078991745248 0 0 0
293 98 1 0.5897 -4.223443860111039 10.351933993607904 7.239787590829266 1 0 0
202 68 2 -1.1794 0.31801495243266764 8.833190112439784 7.2180757585951465 0 0 0
203 68 1 0.5897 -0.5111485755588636 8.360162694865224 7.289745293714863 0 0 0
204 68 1 0.5897 0.9890300012347888 8.155539405756267 7.301832204417252 0 0 0
246 82 1 0.5897 0.13980013368206734 9.504832629696553 5.27643726828743 0 0 0
235 79 2 -1.1794 -1.9916623440449128 7.568289340400883 7.824903253475708 0 0 0
236 79 1 0.5897 -2.8720140599853146 7.242919689682473 7.636346679724901 0 0 0
588 196 1 0.5897 -1.3437921965378128 6.532532008193597 9.18055831937542 0 0 0
302 101 1 0.5897 -2.416136120582874 9.804991016342498 5.5449121451164 1 0 0
8 3 1 0.5897 -0.5742032701914686 6.513232336396097 5.673757748839762 0 0 0
65 22 1 0.5897 2.5852309495051635 7.689647834044237 8.727505887234724 0 0 0
303 101 1 0.5897 -1.7916311314015445 10.654619456775315 6.6312785917157715 1 0 0
66 22 1 0.5897 2.9707654615877557 6.838808923487907 7.536151062367094 0 0 0
192 64 1 0.5897 1.1810701984882268 10.663873930595924 9.56620014474836 0 0 0
190 64 2 -1.1794 0.49174068358262124 9.999870038669005 9.548684787085026 0 0 0
692 231 1 0.5897 -1.3566310744004588 10.00108863461521 9.318541399128357 0 0 0
173 58 1 0.5897 3.0685062346278595 7.958857718676974 5.290347187834029 0 0 0
172 58 2 -1.1794 3.675422821114772 8.695486393118498 5.363874617676111 0 0 0
835 279 2 -1.1794 -5.4283134786164675 8.458362307523446 9.59879393986219 1 0 0
726 242 1 0.5897 0.007129871052895531 10.874371443672384 12.420965468450609 0 0 0
678 226 1 0.5897 0.4064776523266165 8.999786727874062 13.895974631341815 0 0 0
759 253 1 0.5897 -5.5058595729824535 8.474882100829891 13.769867528572298 1 0 0
651 217 1 0.5897 -4.706827464157611 6.500922428773297 11.370563224276715 1 0 0
725 242 1 0.5897 0.7986898771619257 11.138436266766377 13.68426077279303 0 0 0
750 250 1 0.5897 -3.231107183068337 10.125094797731814 14.219180232735503 0 0 0
795 265 1 0.5897 -5.709268054225639 9.252508210707283 11.390723672623846 1 0 0
693 231 1 0.5897 -2.2963547466552097 9.261896993375657 10.247288134160977 0 0 0
649 217 2 -1.1794 -3.909036572573511 6.615298801944274 10.854083677531534 1 0 0
650 217 1 0.5897 -3.3067638627913896 7.0730425790355405 11.440686103595676 1 0 0
742 248 2 -1.1794 0.6934657509576314 7.715775494149216 10.980474054179101 0 0 0
793 265 2 -1.1794 -5.8409211582729075 9.431874224314953 12.321690670544868 1 0 0
743 248 1 0.5897 0.7838466788817797 8.506419588026922 10.448424120408893 0 0 0
744 248 1 0.5897 0.20505533245052865 7.10760573742604 10.4255782118918 0 0 0
616 206 2 -1.1794 -6.475534555453608 6.154275968830527 11.838928623440754 1 0 0
724 242 2 -1.1794 0.5287600623110356 10.435586657618 13.093149151307518 0 0 0
703 235 2 -1.1794 -1.7937075036398529 8.474391431620807 11.9574021618963 0 0 0
704 235 1 0.5897 -0.9021935335449762 8.129338848362032 11.906260057250721 0 0 0
705 235 1 0.5897 -1.858038187616045 8.843166705272212 12.838342603608593 0 0 0
794 265 1 0.5897 -5.1505279520715925 10.055971827266461 12.545864244241338 1 0 0
618 206 1 0.5897 -6.654023210642711 5.58443451376048 11.090806794020972 1 0 0
617 206 1 0.5897 -7.033333849005446 6.919149402678125 11.696428907702211 1 0 0
586 196 2 -1.1794 -0.7171846425683621 5.977423053393302 9.645008133309242 0 0 0
836 279 1 0.5897 -4.8198866969179095 7.790005040131272 9.914423956772058 1 0 0
809 270 1 0.5897 -7.324852873694702 10.71224373207634 12.399131857631192 1 0 0
513 171 1 0.5897 -3.9828191890265967 5.5169933492332595 14.006087962184074 0 0 0
516 172 1 0.5897 -0.28984378738122185 6.743642133935871 14.385127636348619 0 0 0
511 171 2 -1.1794 -3.6143088788715403 6.12740101454787 14.64475656755297 0 0 0
695 232 1 0.5897 -2.747211984943169 9.62516797503236 18.69386647811956 0 0 0
83 28 1 0.5897 -4.324124078433207 6.608616790466275 19.048509698559272 0 0 -1
569 190 1 0.5897 -1.0906815972947035 5.9248998326651074 18.65972213903393 0 0 0
613 205 2 -1.1794 -7.153494419893484 6.454552521440511 16.67041366268092 1 0 0
568 190 2 -1.1794 -1.1357518485601252 6.547129594677419 17.933676791399087 0 0 0
512 171 1 0.5897 -4.164837620661892 6.907570414581428 14.576423794739881 0 0 0
515 172 1 0.5897 -1.7087693467397864 6.274157574177438 14.62713667451295 0 0 0
807 269 1 0.5897 -4.68064555792854 11.143664389032217 16.683990897169146 1 0 0
797 266 1 0.5897 -6.805763047409027 10.583576891402963 17.01874310853964 1 0 0
615 205 1 0.5897 -7.02534370989852 6.202927350508359 15.755827891068968 1 0 0
740 247 1 0.5897 -5.845853095417514 7.391248859771194 17.54473544887783 0 0 0
333 111 1 0.5897 -8.047869585725397 9.241223158056679 18.54675850722741 1 0 -1
758 253 1 0.5897 -5.3027585924109015 8.952375596594699 15.192084624713013 1 0 0
741 247 1 0.5897 -5.608291146622577 8.53949775700729 18.502361609976433 0 0 0
706 236 2 -1.1794 -2.741699778571559 8.657903593688664 17.072978951299206 0 0 0
707 236 1 0.5897 -3.625322433712581 8.30981018931563 17.19323374231857 0 0 0
708 236 1 0.5897 -2.1635620431871097 7.938213662876045 17.326526107640163 0 0 0
796 266 2 -1.1794 -7.746857086679659 10.451244081795428 17.133937930446443 1 0 0
749 250 1 0.5897 -2.8345380870393644 9.262011564450964 15.3982234828497 0 0 0
739 247 2 -1.1794 -5.157946071719033 7.827945980944971 18.04716266793256 0 0 0
762 254 1 0.5897 -7.403427708767908 8.301305845419614 14.70442765591791 1 0 0
798 266 1 0.5897 -7.978427979869359 9.79199924091004 16.479699246930558 1 0 0
805 269 2 -1.1794 -5.25831940818924 10.603171283974465 16.144979204449186 1 0 0
614 205 1 0.5897 -7.196132300585664 5.623817298119349 17.144147604198217 1 0 0
570 190 1 0.5897 -0.2387790790025539 6.594952921625051 17.60271462512916 0 0 0
732 244 1 0.5897 -0.6721665172052163 11.028592302482432 16.530714786979395 0 0 0
677 226 1 0.5897 0.31436191901428323 8.717580714341677 15.380510604846604 0 0 0
514 172 2 -1.1794 -0.8082006673516773 5.957272052363045 14.556217200391995 0 0 0
676 226 2 -1.1794 0.4898856369968536 8.295870564181657 14.539339896572432 0 0 0
731 244 1 0.5897 -1.5415385857003896 11.022532749770797 15.291164428911111 0 0 0
757 253 2 -1.1794 -5.338277428118392 8.158927562466468 14.657797721848217 1 0 0
748 250 2 -1.1794 -2.544103635024139 9.53399748317056 14.527638966000769 0 0 0
281 94 1 0.5897 -3.319458319131104 13.71198499210552 3.514395935214219 1 0 0
280 94 2 -1.1794 -3.3830011051939772 13.955462275943221 2.5908399659969827 1 0 0
282 94 1 0.5897 -2.531405583254897 14.341382940698843 2.385330288347871 1 0 0
252 84 1 0.5897 2.438761414018807 14.868072329170944 0.7312390543303914 0 0 0
500 167 1 0.5897 -1.874613634189548 16.337128463765453 0.39602993729336505 1 0 0
184 62 2 -1.1794 5.519419365855423 12.158436739544038 0.1654755378331953 0 0 0
223 75 2 -1.1794 -0.7874436692590212 12.064191125052911 3.13405602604628 0 0 0
314 105 1 0.5897 -0.28215394602233923 15.29049741366643 2.064674043874587 1 0 0
313 105 2 -1.1794 -1.0472853907169046 15.036070378898218 1.548632233872929 1 0 0
315 105 1 0.5897 -0.7706740871667082 14.247115955334603 1.082445154996137 1 0 0
225 75 1 0.5897 -1.1190733538284174 12.62242587062956 3.83736089052125 0 0 0
367 123 2 -1.1794 1.004361161928509 16.431851366839446 2.681268320727866 0 0 0
369 123 1 0.5897 0.8983213696201577 16.84881169986874 3.536304767379537 0 0 0
180 60 1 0.5897 1.6943178091117232 13.839501563885719 3.8960168441902345 0 0 0
423 141 1 0.5897 -2.590065180733527 16.67515501779247 3.8573794342145753 1 0 0
216 72 1 0.5897 0.8540409836223337 12.560252561912566 2.591593996468631 0 0 0
408 136 1 0.5897 3.769443989015784 16.57879901524276 1.2896347783681212 0 0 0
368 123 1 0.5897 1.9339377865167862 16.207243929465207 2.6374495942322547 0 0 0
214 72 2 -1.1794 1.7223485198124875 12.945494044092483 2.473136773269895 0 0 0
215 72 1 0.5897 1.7192054448414744 13.272047429999821 1.5733350110038093 0 0 0
407 136 1 0.5897 4.296828698516708 15.218735191712849 1.6952477099512147 0 0 0
406 136 2 -1.1794 3.531523377797816 15.78838881958034 1.7743954086981673 0 0 0
222 74 1 0.5897 2.8966621622283037 11.64765417783984 2.902872630487373 0 0 0
499 167 2 -1.1794 -2.6059922397832334 16.860412627788122 0.06776504215960091 1 0 0
250 84 2 -1.1794 1.9739019045175246 14.306511121348914 0.11083627666467298 0 0 0
421 141 2 -1.1794 -2.3802687248829644 16.14278444713129 4.624762030351516 1 0 0
771 257 1 0.5897 -0.0691711046548309 12.026394960274153 0.14090633108476405 1 0 1
269 90 1 0.5897 -3.3047952995284873 12.827371221361604 0.9407417086637305 1 0 0
178 60 2 -1.1794 1.7862652900455664 14.172775977705946 4.788605072726017 0 0 0
770 257 1 0.5897 -1.464961632621948 12.613115293858367 0.14438674675283575 1 0 1
179 60 1 0.5897 1.9225770667554185 13.390960554278271 5.323877226359703 0 0 0
227 76 1 0.5897 1.0587565317485748 11.944322620728922 6.62496402526693 0 0 0
340 114 2 -1.1794 3.425556809705001 16.316702931974625 5.2258974443677095 0 0 0
327 109 1 0.5897 -3.7600794288061294 12.978347454729333 5.662154251165048 1 0 0
226 76 2 -1.1794 1.9499872107687635 11.785693995717159 6.313599423922954 0 0 0
211 71 2 -1.1794 -0.6672151477731418 12.214324469731284 7.2561731929932325 0 0 0
212 71 1 0.5897 -0.6490289302411543 12.695225622574295 8.083587855194342 0 0 0
213 71 1 0.5897 -0.8411425627502713 12.883092524186956 6.593689646066716 0 0 0
177 59 1 0.5897 0.01957098810121982 14.2389961930669 5.2960229725648835 0 0 0
267 89 1 0.5897 -3.839738305116626 12.750322670106431 8.866549358290744 1 0 0
175 59 2 -1.1794 -0.9144495902919143 14.031054904565726 5.324565360258703 0 0 0
341 114 1 0.5897 2.9632162308150507 15.503520540251783 5.022700311804489 0 0 0
234 78 1 0.5897 1.1586512406043195 14.999981799090278 7.832188949161033 0 0 0
176 59 1 0.5897 -1.3503441898414288 14.852357594038725 5.096703666811947 0 0 0
232 78 2 -1.1794 1.8334959973834213 14.377344377289312 8.103137648992899 0 0 0
277 93 2 -1.1794 -4.29496526589089 13.722250335863682 7.294065691542799 1 0 0
278 93 1 0.5897 -3.8951409952975973 14.579359253935417 7.4419184832357335 1 0 0
403 135 2 -1.1794 -2.8538408395715753 15.69402109624851 8.300735542800123 0 0 0
370 124 2 -1.1794 -0.1262823013510208 16.12579505475091 7.539678432560498 0 0 0
1004 335 1 0.5897 -5.172829723216965 16.565671756836934 9.042950056649742 1 0 0
266 89 1 0.5897 -3.112757612805511 11.496640224921668 9.305015836517985 1 0 0
404 135 1 0.5897 -1.9542876072480397 15.833290248690549 8.004514714186266 0 0 0
325 109 2 -1.1794 -3.572333334389227 12.464676004685511 4.876585869260177 1 0 0
405 135 1 0.5897 -3.001269632151397 16.380669741260654 8.95110205894985 0 0 0
279 93 1 0.5897 -5.167607110995535 13.794503375728276 7.680899820408285 1 0 0
326 109 1 0.5897 -3.126677254871903 11.682437759332302 5.202103608505336 1 0 0
425 142 1 0.5897 -4.195090273974728 16.085055164331806 5.071279757328951 1 0 0
756 252 1 0.5897 -1.8029257530463139 13.885740035192494 9.203152864595364 0 0 0
233 78 1 0.5897 2.4598374059045014 14.372187421978722 7.379332597972307 0 0 0
372 124 1 0.5897 0.0032721277781160296 16.58647265403443 6.710669238116634 0 0 0
318 106 1 0.5897 -6.151830381392237 14.591839895108075 9.21084374781453 1 0 0
422 141 1 0.5897 -2.1894164352632925 16.779469089508147 5.3135903145402485 1 0 0
690 230 1 0.5897 1.698810293095514 12.871406197119125 9.226108715785937 0 0 0
371 124 1 0.5897 -0.09990499083046211 16.814762300485967 8.203650497780604 0 0 0
910 304 2 -1.1794 0.30404875516289254 15.61451003087818 11.288447680382264 0 0 0
728 243 1 0.5897 -2.990835422021913 11.48240449885571 12.32102770877209 0 0 0
1005 335 1 0.5897 -4.539283519366155 15.700390407787348 10.111742133978638 1 0 0
718 240 2 -1.1794 -1.2654575456119193 12.020350902644989 11.796059095486271 0 0 0
871 291 2 -1.1794 -2.133121474562164 16.32856954534323 12.347709083393788 0 0 0
720 240 1 0.5897 -1.194038766365237 12.673561067831894 12.492103326837842 0 0 0
911 304 1 0.5897 -0.303891171331788 15.567543865067956 12.026318768265694 0 0 0
873 291 1 0.5897 -2.716417765244742 15.571149141696157 12.29822892370283 0 0 0
785 262 1 0.5897 -7.24648933239571 14.284616093839936 12.25251218806238 1 0 0
773 258 1 0.5897 -6.315849520131875 12.439781889529248 11.018969375067218 1 0 0
729 243 1 0.5897 -3.9589137756862263 12.015559540655174 13.355676660070072 0 0 0
1003 335 2 -1.1794 -5.361654219453126 16.128664267683746 9.873393250523646 1 0 0
680 227 1 0.5897 -2.9857336077335033 13.93047026651685 14.29040510672258 0 0 0
784 262 2 -1.1794 -6.445787068724662 13.763913906838456 12.187547476322248 1 0 0
831 277 1 0.5897 -7.377416806608305 12.010171171587446 14.061514639063727 1 0 0
719 240 1 0.5897 -1.0932811725731186 12.508157958695493 10.990642902973828 0 0 0
786 262 1 0.5897 -6.378023119809779 13.321096824402776 13.033479548064811 1 0 0
817 273 2 -1.1794 -3.863005716834058 14.41847065540619 11.54776475681315 1 0 0
818 273 1 0.5897 -4.7649643026510216 14.450088346631656 11.866905338824505 1 0 0
819 273 1 0.5897 -3.727566437440481 13.503463877247212 11.30129550800007 1 0 0
872 291 1 0.5897 -2.3940109226159927 16.880914856682395 11.610673538123319 0 0 0
912 304 1 0.5897 1.0988198857978944 15.184450884068296 11.604481519100444 0 0 0
727 243 2 -1.1794 -3.769917626035246 11.242997342038638 12.823032497674209 0 0 0
684 228 1 0.5897 -0.6862562873217346 14.334137325683395 14.29224096580336 0 0 0
688 230 2 -1.1794 1.9811577368408813 12.199632428908929 9.846940201709284 0 0 0
755 252 1 0.5897 -0.8004922757389843 14.542019411104866 10.128745098740938 0 0 0
682 228 2 -1.1794 -1.2682735573277393 13.641436000497228 13.979536435015216 0 0 0
846 282 1 0.5897 -0.16412053040419394 16.64146362526749 14.218711277145594 0 0 0
962 321 1 0.5897 -6.138589311543451 16.85979462358639 12.897688274761222 1 0 0
772 258 2 -1.1794 -6.1482097027568745 11.799929886528618 10.327060249713002 1 0 0
774 258 1 0.5897 -5.204238891037155 11.851253600959733 10.176311633597516 1 0 0
754 252 2 -1.1794 -0.9959674531957359 13.714556017898387 9.688972243338743 0 0 0
265 89 2 -1.1794 -3.4816114554865427 12.314097683732923 9.639759339382824 1 0 0
876 292 1 0.5897 -2.699429585130426 15.480807699668643 17.14978216326081 0 0 0
681 227 1 0.5897 -3.8892569321250168 13.630051283840999 15.467410005502908 0 0 0
907 303 2 -1.1794 -5.89056368513552 15.961417329760623 17.906910808505074 0 0 0
737 246 1 0.5897 -0.9729592874575035 14.95953658349315 18.328640484149645 0 0 0
185 62 1 0.5897 -1.1473385650694237 12.749433106185899 18.79837267939559 0 0 -1
908 303 1 0.5897 -6.473125679438885 15.397867988495735 17.39761023474719 0 0 0
251 84 1 0.5897 -5.0537420597280835 14.800443660301724 18.889664960493754 0 0 -1
844 282 2 -1.1794 0.10880954643473473 15.913576973223991 14.777379963605965 0 0 0
715 239 2 -1.1794 -3.880098005340754 12.757373199047706 17.09541856619704 0 0 0
716 239 1 0.5897 -4.201739793375996 13.118523013095286 17.921453362737132 0 0 0
927 309 1 0.5897 -5.33891824028002 16.72001667785348 15.019375119599687 1 0 0
874 292 2 -1.1794 -3.2616506041365243 16.255502250413322 17.16363537316714 0 0 0
736 246 2 -1.1794 -1.3275973175837557 14.3410357165917 17.689899567775186 0 0 0
829 277 2 -1.1794 -6.693081457064813 12.456793237153624 14.560142552314822 1 0 0
783 261 1 0.5897 -8.256419442392664 14.303194686233649 17.097188105789506 1 0 0
909 303 1 0.5897 -5.09948281757479 16.034157626682003 17.37285097835015 0 0 0
781 261 2 -1.1794 -7.417593774987825 13.920924821496557 16.839029875374727 1 0 0
782 261 1 0.5897 -7.112324123411972 13.461157617318028 17.621202620041203 1 0 0
730 244 2 -1.1794 -1.1821728751992389 11.604468350088938 15.96085945232725 0 0 0
717 239 1 0.5897 -2.9266216639072598 12.800368730655775 17.16976470946154 0 0 0