LAMMPS data file via write_data, version 30 Jul 2021, timestep = 750000

1296 atoms
2 atom types
864 bonds
1 bond types
432 angles
1 angle types

-10.621395567128877 12.601395567128877 xlo xhi
-9.19033945302835 12.18033745302835 ylo yhi
0.12522301157167703 21.73477598842917 zlo zhi
-9.026700455677583 1.8560365466135438 2.9600178529673933 xy xz yz

Masses

1 1.008
2 15.999

Pair Coeffs # lj/cut/tip4p/long/omp

1 0 0
2 0.21084 3.1668

Bond Coeffs # harmonic/omp

1 450 0.9572

Angle Coeffs # harmonic/omp

1 55 104.52

Atoms # full

282 94 1 0.5897 -10.405916371569225 -4.071170199605781 1.5153164853272008 1 1 0
281 94 1 0.5897 -8.918078614994808 -3.798965966549889 1.4529973523044795 1 1 0
280 94 2 -1.1794 -9.555998059258927 -4.511134791101522 1.499074077640183 1 1 0
59 20 1 0.5897 -13.511186238478032 -0.9696518932390354 3.2882780871593793 1 0 0
69 23 1 0.5897 -11.153795314415637 -2.7474992675522563 3.2064638873558815 1 0 0
315 105 1 0.5897 -8.747457251582107 -5.526345007745482 5.49621373550164 1 1 0
272 91 1 0.5897 -9.188555617705504 -1.2944440641807917 1.0805648589303474 1 1 0
271 91 2 -1.1794 -10.043797598048721 -0.9115672618323085 0.8851919403131339 1 1 0
270 90 1 0.5897 -8.460695448887478 -7.2858320924209625 2.2870975661038586 1 1 0
163 55 2 -1.1794 -7.1114940454507884 -7.869875893209244 1.1260882469858802 1 1 0
164 55 1 0.5897 -6.332844603204747 -8.1876893909468 1.58320466596771 1 1 0
97 33 2 -1.1794 -11.905681284203748 0.6598668316696727 5.329724384965139 1 0 0
269 90 1 0.5897 -9.315695490206497 -6.044448694950448 2.4286084706335833 1 1 0
268 90 2 -1.1794 -9.185276401553146 -6.919540531363569 2.7940687784854736 1 1 0
259 87 2 -1.1794 -6.475206080871215 -5.332348985727316 0.4599573905544403 1 1 0
301 101 2 -1.1794 -7.750284918644507 -2.3725215364277066 1.4834414168973604 1 1 0
258 86 1 0.5897 -12.6203166566227 -3.0169082222751973 1.1691239372912312 1 1 0
256 86 2 -1.1794 -12.156315792146835 -3.552778923109682 1.812460323444539 1 1 0
67 23 2 -1.1794 -10.7194651047347 -2.386953254908722 3.9796083105354203 1 0 0
324 108 1 0.5897 -7.1344604791420405 -4.31173638559811 3.619903515142321 1 1 0
44 15 1 0.5897 -9.784861829291618 0.7780608754407261 0.34936915807319824 1 0 0
68 23 1 0.5897 -11.349390734992797 -2.512488491797802 4.689284753458537 1 0 0
73 25 2 -1.1794 -8.42756390872929 -3.7728314652801185 4.718678284450111 1 0 0
52 18 2 -1.1794 -12.006637265568475 0.044488223854218134 2.7005653934363365 1 0 0
314 105 1 0.5897 -8.745138522441511 -6.75620311504487 4.61316036029142 1 1 0
99 33 1 0.5897 -11.68694684639858 1.5885103386365742 5.2514372102957605 1 0 0
75 25 1 0.5897 -9.22184888340127 -3.4364722739774143 4.303683289768477 1 0 0
53 18 1 0.5897 -12.076067617792805 0.9565383054240755 2.4182461460705187 1 0 0
323 108 1 0.5897 -6.306765639929524 -5.570257031961249 3.4677795980617585 1 1 0
107 36 1 0.5897 -9.038819715249403 1.5994941613788374 3.3724331437043134 1 0 0
299 100 1 0.5897 -6.649801474412991 -7.970449811628327 4.087258362431465 1 1 0
298 100 2 -1.1794 -6.038886395440975 -7.236088893877792 4.148575939583309 1 1 0
300 100 1 0.5897 -5.173861611661645 -7.645115470485334 4.173347905670253 1 1 0
82 28 2 -1.1794 -8.990254890160148 -0.1617507903771962 3.986210811801996 1 0 0
83 28 1 0.5897 -9.647593144930172 -0.8549464775615654 4.046419020966823 1 0 0
54 18 1 0.5897 -11.238839003678079 -0.29200301957891206 2.2385563261168935 1 0 0
98 33 1 0.5897 -11.992298234227192 0.35663012571993846 4.425869688287163 1 0 0
275 92 1 0.5897 -10.556281159949368 -7.835082261549636 3.5128981920510505 1 1 0
313 105 2 -1.1794 -8.859098553996612 -6.4767444890847 5.521620594187762 1 1 0
261 87 1 0.5897 -6.465458596665653 -5.0116184098093886 1.361865070393403 1 1 0
273 91 1 0.5897 -10.436931142979722 -1.5127151386808588 0.25237545765575997 1 1 0
322 108 2 -1.1794 -6.408309872048515 -4.684291741664478 3.119781174751815 1 1 0
260 87 1 0.5897 -6.80306217089032 -6.229156234293998 0.5276271716069467 1 1 0
84 28 1 0.5897 -8.154178472401949 -0.626432448276125 3.950906495213606 1 0 0
417 139 1 0.5897 -8.787866009255549 0.9436420908663816 5.445079728697812 1 0 0
74 25 1 0.5897 -8.227226570538841 -3.136135744047043 5.4048959128427 1 0 0
165 55 1 0.5897 -7.276199596193377 -8.52546620686767 0.4482355919798568 1 1 0
429 143 1 0.5897 -6.396823872761258 -7.199083849496777 8.594323005927409 1 0 0
428 143 1 0.5897 -6.6300714454859975 -7.1757198470407575 10.09007320973352 1 0 0
427 143 2 -1.1794 -5.967873377805495 -6.990298684214528 9.424259002393377 1 0 0
527 176 1 0.5897 -11.70507543759532 1.4861931582780983 8.768309278356522 1 0 0
526 176 2 -1.1794 -12.385288445744361 0.9903260834173935 9.223944491464781 1 0 0
426 142 1 0.5897 -8.9226317719225 -1.62600921260022 6.859774426863344 1 0 0
419 140 1 0.5897 -8.907137324149343 -5.558291396458991 8.652509378942405 1 0 0
418 140 2 -1.1794 -9.568050734543515 -5.996034545416886 9.18894655940193 1 0 0
413 138 1 0.5897 -7.76341068574167 -3.6696362879967284 7.698553142501265 1 0 0
411 137 1 0.5897 -13.321686865586898 0.24963490385883347 6.44439554768563 1 0 0
520 174 2 -1.1794 -10.413365768336819 2.5076916829909717 8.066154594603782 1 0 0
402 134 1 0.5897 -10.831277351890552 -0.22872797997397498 6.492534209669949 1 0 0
401 134 1 0.5897 -11.164304558493928 -1.1988983683955494 7.60606970730704 1 0 0
400 134 2 -1.1794 -10.427620920412362 -0.7682006488408764 7.1725190165207895 1 0 0
351 117 1 0.5897 -6.956302152343827 -3.0063636082310765 10.599100648565615 0 0 0
627 209 1 0.5897 -10.37361114362391 -6.881483938840935 6.403113352112036 1 1 0
618 206 1 0.5897 -7.773367857516812 -7.485925459823795 6.662377141632791 1 1 0
633 211 1 0.5897 -5.910194988963382 -6.114420480003828 5.623851698943424 1 1 0
537 179 1 0.5897 -9.466321119112006 -0.041005285805969294 8.637119124203167 1 0 0
536 179 1 0.5897 -9.571036826982596 -0.1388359582891905 10.144336204295445 1 0 0
535 179 2 -1.1794 -8.988034732707703 0.15271977879221765 9.443398044677618 1 0 0
528 176 1 0.5897 -11.943829643514789 0.6266538832821382 9.99154547419631 1 0 0
414 138 1 0.5897 -6.82059716116637 -4.801687865066806 7.349832946844394 1 0 0
435 145 1 0.5897 -7.386779617919313 -0.8249143393502933 9.65969537142277 0 0 0
412 138 2 -1.1794 -7.511843710930027 -4.55429203569453 7.9639870132293265 1 0 0
424 142 2 -1.1794 -8.079800115469745 -2.07858159218413 6.828155258999047 1 0 0
420 140 1 0.5897 -9.063611005478439 -6.520941257742625 9.810509335079852 1 0 0
350 117 1 0.5897 -7.303492055968476 -4.278949343732929 9.85593758834078 0 0 0
616 206 2 -1.1794 -7.3790368126523855 -8.034013654247904 7.340945712891423 1 1 0
522 174 1 0.5897 -9.839951096215936 2.0835818176548724 7.4277308552970585 1 0 0
458 153 1 0.5897 -10.120867578210579 2.7706975811627643 9.909753306562008 0 0 0
631 211 2 -1.1794 -5.650043360366417 -5.513236626694681 6.32192518621009 1 1 0
425 142 1 0.5897 -7.429736336085745 -1.3813638657450173 6.915154180047591 1 0 0
349 117 2 -1.1794 -7.157446042784931 -3.932160995056079 10.736172198794943 0 0 0
684 228 1 0.5897 -8.507964120454538 -6.500877071833763 14.21101717143309 0 0 0
836 279 1 0.5897 -11.208938590366776 -1.295759746408411 11.377662316723177 1 0 0
835 279 2 -1.1794 -10.985620523744032 -0.37414601355620825 11.246895427265361 1 0 0
740 247 1 0.5897 -10.891038408643706 -3.287908220429406 12.016263771783834 1 0 0
762 254 1 0.5897 -9.195642202128845 2.1769671480265025 11.968686199143358 0 0 0
761 254 1 0.5897 -9.523937599818959 1.3143389238724517 13.168771372510944 0 0 0
760 254 2 -1.1794 -8.831105716680106 1.8585167217228005 12.794556043781023 0 0 0
652 218 2 -1.1794 -5.701728132798234 -5.32991574712795 12.580592096202006 0 0 0
682 228 2 -1.1794 -7.771698797766453 -6.874734584100095 13.726921926540578 0 0 0
896 299 1 0.5897 -7.83250556977361 2.684373983613657 15.627279256947665 0 0 0
780 260 1 0.5897 -7.506532858004 -3.789050713030848 15.355400285760284 0 0 0
779 260 1 0.5897 -7.149641684047848 -2.89860682102843 14.18414601171826 0 0 0
778 260 2 -1.1794 -7.888890357199783 -3.3418982428187514 14.60028238240509 0 0 0
768 256 1 0.5897 -9.361580493322766 -2.5177943548947006 14.860562242441743 0 0 0
654 218 1 0.5897 -6.162850849081177 -4.7381737060491975 11.985992765473407 0 0 0
653 218 1 0.5897 -6.3979223494179704 -5.805810479819069 13.033379874296841 0 0 0
661 221 2 -1.1794 -9.375542054801674 -4.278048017411396 12.252486457135186 0 0 0
792 264 1 0.5897 -11.527478714845103 0.717257138135059 14.514506070027734 0 0 0
729 243 1 0.5897 -8.051846022407927 -7.331339829191829 11.89161431043049 1 0 0
788 263 1 0.5897 -5.012537560314145 -4.614934649274612 15.547189395220665 0 0 0
857 286 1 0.5897 -13.254795861541421 1.2888481969032988 12.409451930359996 1 0 0
663 221 1 0.5897 -8.720968153960836 -4.167770806503123 11.562868769044291 0 0 0
837 279 1 0.5897 -11.027798002231524 0.00969536311185415 12.122844212260535 1 0 0
767 256 1 0.5897 -10.812012340953139 -2.90453108954139 15.056283266682033 0 0 0
662 221 1 0.5897 -8.893437009757813 -4.132644690401717 13.066615447570571 0 0 0
791 264 1 0.5897 -10.748718870372276 -0.5718593863698018 14.360105157793306 0 0 0
790 264 2 -1.1794 -10.859240177380752 0.2967797977864084 13.973308220698756 0 0 0
888 296 1 0.5897 -10.37479403222483 3.107975709929832 15.455351781307572 0 0 0
766 256 2 -1.1794 -10.229171683125784 -2.1461018702805177 15.019627150991399 0 0 0
770 257 1 0.5897 -11.846684335656532 2.9472285351842746 13.432789953787804 0 0 0
727 243 2 -1.1794 -8.130102414259516 -7.643441112027862 10.990020062876079 1 0 0
789 263 1 0.5897 -4.75738794710008 -4.697909186506115 14.057145291212457 0 0 0
771 257 1 0.5897 -11.62123101553202 2.919757858292103 11.935914254773907 0 0 0
769 257 2 -1.1794 -12.303592841195492 2.825287787098473 12.600481810696781 0 0 0
897 299 1 0.5897 -7.7919490781215295 2.536819358840944 14.121004765362727 0 0 0
757 253 2 -1.1794 -9.78605598191613 -5.774849870512602 15.333540879740614 0 0 0
758 253 1 0.5897 -9.528956222859588 -5.138676370166195 16.001064079265497 0 0 0
1009 337 2 -1.1794 -11.070419567164805 3.7914103787815243 20.916263748770096 0 -1 0
1260 420 1 0.5897 -9.708135873493768 3.2891921917678015 19.71413121982272 0 0 0
1101 367 1 0.5897 -10.136360951173225 -0.9899588967785995 16.42290160323597 0 0 0
1259 420 1 0.5897 -8.784261430781383 2.0902461099297014 19.68191506384063 0 0 0
1258 420 2 -1.1794 -8.873112410723314 2.986442802016727 19.35741833787054 0 0 0
1218 406 1 0.5897 -13.283110911890304 3.276273877686654 17.90870767766857 0 0 0
1096 366 2 -1.1794 -8.77244361154239 -6.576668572744396 18.829520426998197 0 0 0
1249 417 2 -1.1794 -11.449950609534303 1.0512263881106065 21.6200966175591 0 0 0
1130 377 1 0.5897 -7.198079937175485 -1.765294889884606 18.696840970522455 0 0 0
1248 416 1 0.5897 -5.800309657697947 -1.242108097888062 20.795177669211522 0 0 0
1246 416 2 -1.1794 -6.144359485376496 -0.8473152956583405 19.993847367621438 0 0 0
1236 412 1 0.5897 -7.804468265221409 -0.01565139514579883 20.24739244683585 0 0 0
1250 417 1 0.5897 -11.477235820121617 0.7116725460762954 20.72546554090243 0 0 0
1097 366 1 0.5897 -8.87834471369351 -5.676341994402367 18.522024625958203 0 0 0
1152 384 1 0.5897 -6.826930490672986 -3.9458424769523495 19.859530829855117 0 0 0
1225 409 2 -1.1794 -8.09882351362615 -3.5546090515986943 21.104438902806756 0 0 0
1235 412 1 0.5897 -9.240978759495473 -0.4761414444174914 20.373960790910292 0 0 0
1227 409 1 0.5897 -8.860479790312741 -3.1721715645843043 20.66868126479445 0 0 0
1234 412 2 -1.1794 -8.702008788536427 0.31189324688452835 20.304828073100474 0 0 0
1204 402 2 -1.1794 -11.832063276916818 0.4512597166163079 18.974200969456064 0 0 0
1251 417 1 0.5897 -11.152408125570908 1.956018744939378 21.524467534671928 0 0 0
1206 402 1 0.5897 -11.122832294490612 0.1133304396191761 18.42738552280909 0 0 0
1109 370 1 0.5897 -8.777814138854827 -3.441049899284189 17.672160087207022 0 0 0
1108 370 2 -1.1794 -9.373290766331534 -4.1905012070072765 17.670849366660246 0 0 0
1011 337 1 0.5897 -11.914389163348865 4.188770212274026 20.70173186794655 0 -1 0
1089 363 1 0.5897 -6.405387321545689 -4.7405977104121675 17.439475424967867 0 0 0
1226 409 1 0.5897 -7.806792871601489 -2.8777869554690714 21.71520050766812 0 0 0
1110 370 1 0.5897 -10.228720997295506 -3.8175435110163702 17.883698879363497 0 0 0
1129 377 2 -1.1794 -7.607678388788557 -1.9522306101085238 17.85205342686905 0 0 0
1151 384 1 0.5897 -6.0220291579659735 -5.22270057682136 19.741771268925717 0 0 0
1150 384 2 -1.1794 -6.171148350945262 -4.379608287690051 19.313613819289614 0 0 0
1131 377 1 0.5897 -6.9324146505482425 -1.7437902850525404 17.206488136772442 0 0 0
1221 407 1 0.5897 -10.759869318251434 -2.0888900315260424 19.497747657727622 0 0 0
1219 407 2 -1.1794 -10.356225343265825 -1.9117379568154744 20.347497278363893 0 0 0
1197 399 1 0.5897 -9.187618614653463 2.613390198107215 17.57502887379413 0 0 0
1100 367 1 0.5897 -9.061207683431881 -0.9410943112943091 17.48767539129949 0 0 0
1216 406 2 -1.1794 -12.415622128645929 2.8836203006483707 17.811436425005972 0 0 0
1099 367 2 -1.1794 -9.78913391146998 -0.43747533805893823 17.12332539881732 0 0 0
1010 337 1 0.5897 -10.753193230666295 4.2927093858985685 21.66757693202859 0 -1 0
1121 374 1 0.5897 -4.66393111181006 -3.3330887157783113 18.460362056062927 0 0 0
1205 402 1 0.5897 -11.985773287384482 1.33771133890858 18.647188234653633 0 0 0
1088 363 1 0.5897 -6.625621794238994 -5.868344256101146 16.453559008861586 0 0 0
1196 399 1 0.5897 -9.420132915387912 1.3321327398090936 16.802603306492617 0 0 0
1087 363 2 -1.1794 -6.497385229940856 -4.9210328660864935 16.503858175404503 0 0 0
1217 406 1 0.5897 -11.819006794125954 3.630242765430266 17.757976060467183 0 0 0
1143 381 1 0.5897 -8.26839393069749 -5.332851079579632 21.532716688544287 0 0 0
866 289 1 0.5897 -12.533158568963218 1.7128702052347133 16.424159973820927 0 0 0
1195 399 2 -1.1794 -9.30117609362866 2.2748947706171396 16.686808235520424 0 0 0
40 14 2 -1.1794 -15.013687719470926 3.7293901286759183 1.901963672252015 1 0 0
177 59 1 0.5897 -14.066207545723078 4.418511548921138 3.30287314981333 1 0 0
42 14 1 0.5897 -15.389399797532146 4.26650612914665 1.204325487173846 1 0 0
193 65 2 -1.1794 -13.791250648196662 12.039030549874887 1.5701000688358338 1 0 0
174 58 1 0.5897 -16.281008545812092 10.079844977681507 1.721299020116895 1 0 0
173 58 1 0.5897 -14.820061385600088 10.389331856391188 1.4733758315120629 1 0 0
172 58 2 -1.1794 -15.437607332763555 9.661780187494632 1.5479112213124042 1 0 0
215 72 1 0.5897 -12.332080146318654 8.679039954610754 3.3743746430146273 1 0 0
162 54 1 0.5897 -14.418624875940244 6.7309361879872025 2.134186720341576 1 0 0
161 54 1 0.5897 -15.311433114859476 7.949567081160787 2.2337162189394903 1 0 0
160 54 2 -1.1794 -15.196131159531651 7.065150188383296 2.581366351825176 1 0 0
55 19 2 -1.1794 -13.279285212827581 6.065413633789767 0.8567299277602227 1 0 0
56 19 1 0.5897 -12.474696704402183 5.653021383403791 1.171062627837946 1 0 0
205 69 2 -1.1794 -14.980393590962805 7.732913420202273 5.288168368125318 1 0 0
151 51 2 -1.1794 -12.741030988302478 8.790239511574004 0.3131357039511153 1 0 0
66 22 1 0.5897 -13.364091157170318 2.869490978098842 1.7197356635563021 1 0 0
65 22 1 0.5897 -11.898102017798504 3.1245800416923117 1.4414930609377685 1 0 0
64 22 2 -1.1794 -12.54332105538049 2.421397306588341 1.5154459626878525 1 0 0
285 95 1 0.5897 -17.220654733513882 11.566122492862235 3.270082722383675 1 0 0
148 50 2 -1.1794 -17.913032337509854 10.799097270095725 1.875321329094484 1 0 0
214 72 2 -1.1794 -12.482772721947901 9.550976066935604 3.0091692206439298 1 0 0
150 50 1 0.5897 -18.37599841611396 11.173341126643074 1.1256897694064283 1 0 0
45 15 1 0.5897 -9.439875363850526 1.9734916192399918 1.2120709967196843 1 0 0
284 95 1 0.5897 -17.348859299192483 11.569435157421847 4.778657092491978 1 0 0
43 15 2 -1.1794 -9.577461687823876 1.7113713654064284 0.3017032074449286 1 0 0
206 69 1 0.5897 -14.952406867563305 7.524518732630586 4.354262378637134 1 0 0
153 51 1 0.5897 -12.777606900365033 9.145434203035087 1.2013330539806215 1 0 0
191 64 1 0.5897 -12.73000256773558 6.3182744582741925 4.089607478821003 1 0 0
190 64 2 -1.1794 -12.081363961278008 7.021920842254822 4.0697120506190085 1 0 0
183 61 1 0.5897 -12.251778641171871 3.638222133652455 4.5267939063801625 1 0 0
291 97 1 0.5897 -15.191824991093885 10.804794694770841 4.362616417223827 1 0 0
181 61 2 -1.1794 -11.384980325365307 3.308441939924178 4.763650600574361 1 0 0
176 59 1 0.5897 -14.383076893592099 4.399655564831864 4.783218910019157 1 0 0
175 59 2 -1.1794 -13.690892961560525 4.620412455186685 4.160058275336311 1 0 0
289 97 2 -1.1794 -14.41897744615314 10.429870726633702 4.784952798424354 1 0 0
108 36 1 0.5897 -9.98854121618793 2.7650585446392686 3.550016432778799 1 0 0
283 95 2 -1.1794 -16.747565900126872 11.797157055303991 4.069571388464336 1 0 0
216 72 1 0.5897 -13.164242278170972 9.929380701377891 3.5647118420406163 1 0 0
167 56 1 0.5897 -16.580192055004947 6.10605662729734 3.3395095397206735 1 0 0
152 51 1 0.5897 -12.89435936977594 7.851789011115397 0.42340140127786946 1 0 0
85 29 2 -1.1794 -10.954288863639782 4.65613444626697 1.4603122925105902 1 0 0
207 69 1 0.5897 -14.887063274785998 8.68492988547408 5.32458053330209 1 0 0
290 97 1 0.5897 -14.182779393073456 11.06535367834017 5.460804148559366 1 0 0
192 64 1 0.5897 -11.238972394594786 6.570245713046404 4.019152568379919 1 0 0
182 61 1 0.5897 -11.070994487065404 3.9173665338940893 5.432251359297308 1 0 0
508 170 2 -1.1794 -13.503510219269678 6.0997487692875705 7.188340725949258 1 0 0
645 215 1 0.5897 -12.417567651129625 6.973717505744187 8.482391320195347 1 0 0
644 215 1 0.5897 -12.681297079068763 7.189937905679521 9.957492674963495 1 0 0
643 215 2 -1.1794 -11.989374139363173 7.2352089201976 9.297655442492065 1 0 0
509 170 1 0.5897 -14.27046455469582 5.751326345496382 7.642807701152756 1 0 0
640 214 2 -1.1794 -13.981576566315923 12.191881694360589 6.859838506117393 1 0 0
636 212 1 0.5897 -15.083751514556056 7.953391234732635 9.741388890056928 1 0 0
630 210 1 0.5897 -12.833037956507493 9.35585683749575 7.372940244753847 1 0 0
629 210 1 0.5897 -13.582224504311082 10.654640035876795 7.582740276588432 1 0 0
628 210 2 -1.1794 -13.410206139984558 9.805618489912437 7.990082674713896 1 0 0
459 153 1 0.5897 -10.14701941114696 4.05416830945771 10.712467089745363 0 0 0
566 189 1 0.5897 -13.077974796671676 10.197239948159552 9.783600000627901 0 0 0
641 214 1 0.5897 -13.367378790969747 12.924732934944636 6.8156916554052485 1 0 0
543 181 1 0.5897 -10.629616231636591 6.220243613403186 9.830333459759018 0 0 0
327 109 1 0.5897 -13.579969681164403 13.442234069939996 9.805890674784761 0 -1 0
510 170 1 0.5897 -13.864844262684874 6.675770741093773 6.514552568988065 1 0 0
457 153 2 -1.1794 -10.240903601047139 3.105410287758952 10.798542231925817 0 0 0
521 174 1 0.5897 -10.457803487833415 3.420106809753671 7.78001691025079 1 0 0
534 178 1 0.5897 -11.85511197878977 5.379187413094758 6.879343907959189 1 0 0
519 173 1 0.5897 -16.498783612233936 7.306929768782695 6.206731758934489 1 0 0
642 214 1 0.5897 -14.830652453722472 12.600349076293607 7.028366485353665 1 0 0
635 212 1 0.5897 -14.845480992296693 8.896824982471077 8.581521554825791 1 0 0
634 212 2 -1.1794 -15.525349097378012 8.369617446815905 9.00106536287928 1 0 0
533 178 1 0.5897 -10.41253860328129 5.833307424869195 6.94603402325587 1 0 0
532 178 2 -1.1794 -10.957406721456579 5.047678977599771 6.899152609528372 1 0 0
617 206 1 0.5897 -17.14904208426723 13.01097874924043 7.848479434491704 1 0 0
567 189 1 0.5897 -12.841668123639879 11.402426153145296 10.669047790557109 0 0 0
565 189 2 -1.1794 -12.99265672765268 10.457674867376905 10.700823458393947 0 0 0
541 181 2 -1.1794 -9.897546541753979 5.752509494695175 10.232283130786069 0 0 0
525 175 1 0.5897 -11.891020741002663 8.049441746268318 5.586992348584077 1 0 0
523 175 2 -1.1794 -11.552010237388947 8.705636353942015 6.1959886999282565 1 0 0
658 220 2 -1.1794 -16.37404671080055 11.864137705962872 14.89506886066836 0 -1 0
887 296 1 0.5897 -10.277074252708866 4.128168644657995 14.340986059413321 0 0 0
943 315 2 -1.1794 -14.107065265708432 6.8510204424550025 10.974714869512546 1 0 0
876 292 1 0.5897 -12.432878866344671 4.549083868084621 15.006949820519571 0 0 0
870 290 1 0.5897 -12.0614288208322 9.395706882141521 11.906028355683311 0 0 0
869 290 1 0.5897 -12.330888651668063 8.488076277172038 13.087436259869795 0 0 0
868 290 2 -1.1794 -11.624798164552768 8.94077920112375 12.626268395279121 0 0 0
671 224 1 0.5897 -13.239649046951868 11.512037108752711 14.087371614042514 0 -1 0
659 220 1 0.5897 -16.90992793087802 11.074583253214655 14.970623657528323 0 -1 0
728 243 1 0.5897 -17.194672606490528 12.773932994397782 11.068448108614678 1 -1 0
956 319 1 0.5897 -16.662789403783265 10.737064811381973 12.050908730900062 1 0 0
945 315 1 0.5897 -13.911117323841431 7.261328858416377 11.81713116353076 1 0 0
886 296 2 -1.1794 -10.90193416440629 3.569324722063879 14.80296081253413 0 0 0
660 220 1 0.5897 -15.487553502208225 11.538389907017727 14.739579151524325 0 -1 0
900 300 1 0.5897 -14.359042864671713 7.840621735046071 14.352570139985309 0 0 0
899 300 1 0.5897 -13.518711529215764 6.612072038093585 14.075793688690897 0 0 0
898 300 2 -1.1794 -13.647984150474171 7.5190733287443585 13.798301458512992 0 0 0
879 293 1 0.5897 -14.548836657743315 10.09046499754406 11.690880325049273 0 0 0
878 293 1 0.5897 -14.871245320012182 10.077514925590926 13.170089176141383 0 0 0
877 293 2 -1.1794 -15.195278745068798 9.774129424775126 12.321939686367486 0 0 0
683 228 1 0.5897 -16.789797251409517 13.572390623271893 13.97858979244225 0 -1 0
874 292 2 -1.1794 -13.312553737818353 4.923010357827739 14.956652956961817 0 0 0
848 283 1 0.5897 -13.843609466629708 3.9231297681486694 12.152480393652706 1 0 0
670 224 2 -1.1794 -13.834123394693743 10.889240305787883 14.505629444816506 0 -1 0
672 224 1 0.5897 -13.316753780286199 10.499909149378212 15.210677156461704 0 -1 0
944 315 1 0.5897 -14.283050509746559 5.934833545848207 11.189139327198372 1 0 0
680 227 1 0.5897 -10.884881854308597 9.766796997209433 15.564040563472592 0 -1 0
875 292 1 0.5897 -13.897373735731694 4.166055114206223 14.992352869974724 0 0 0
847 283 2 -1.1794 -14.624811054752534 4.232454281428733 11.693896212083512 1 0 0
649 217 2 -1.1794 -15.712801422169768 8.249944699119986 15.522834104253382 0 -1 0
650 217 1 0.5897 -15.456821187522529 8.932275347701829 16.143562872721716 0 -1 0
993 331 1 0.5897 -16.196306582127985 13.10386380993215 16.256888529035397 0 -1 0
1209 403 1 0.5897 -13.125529815605933 6.258279933346257 16.243259779713668 0 0 0
1140 380 1 0.5897 -11.884518214735436 12.734915906950384 20.770123538927685 0 -1 0
1138 380 2 -1.1794 -12.247220037359648 13.28231299255527 20.073595396696412 0 -1 0
1128 376 1 0.5897 -13.759856921968769 14.156149771611286 20.528701847529494 0 -1 0
1127 376 1 0.5897 -15.249893928381923 13.888870512692172 20.530134764892903 0 -1 0
1018 340 2 -1.1794 -11.753122789436267 7.34337192815045 20.29443558903126 0 -1 0
1019 340 1 0.5897 -12.382971229799018 6.62426164165295 20.245082046398338 0 -1 0
1020 340 1 0.5897 -10.901071403271143 6.911982313641332 20.358540871454323 0 -1 0
1022 341 1 0.5897 -13.311488886767002 12.649822714128149 18.629631229088815 0 -1 0
989 330 1 0.5897 -15.108655121191596 8.55217261175008 18.367422891266706 0 -1 0
1119 373 1 0.5897 -14.715298598640013 11.32035913954607 20.70928682573987 0 -1 0
1237 413 2 -1.1794 -10.824906326407682 5.239824040659055 17.784420783685263 0 0 0
1117 373 2 -1.1794 -13.906073533109677 10.91333343291792 21.01867098173671 0 -1 0
1044 348 1 0.5897 -12.581110751840171 10.330864890228376 19.871163970793067 0 -1 0
1043 348 1 0.5897 -11.924774720316362 9.016268717985344 19.506180275069607 0 -1 0
1030 344 2 -1.1794 -9.264695950491184 6.052205530408703 20.032836861355698 0 -1 0
1042 348 2 -1.1794 -11.95615021291647 9.94080736772738 19.25999900886255 0 -1 0
1032 344 1 0.5897 -8.759152959598392 5.583797681307924 20.697185714897575 0 -1 0
1003 335 2 -1.1794 -13.313341088499563 5.1982944450861055 20.245962849106682 0 -1 0
988 330 2 -1.1794 -14.91517973734869 7.686933923401192 18.728379723768658 0 -1 0
980 327 1 0.5897 -12.600188274972517 8.581670218876251 16.52343964967987 0 -1 0
1126 376 2 -1.1794 -14.60808572099375 14.598195682379032 20.564706598477223 0 -1 0
981 327 1 0.5897 -12.294233359810319 9.70579379158664 17.49043363591096 0 -1 0
1111 371 2 -1.1794 -16.201415423163816 12.187219399650235 20.439562683274158 0 -1 0
1239 413 1 0.5897 -10.080393692579888 5.322383481646723 17.188555635634447 0 0 0
1238 413 1 0.5897 -10.486460190166824 5.526645418680177 18.632704892453802 0 0 0
990 330 1 0.5897 -14.178478024681965 7.368530035902882 18.206757122070854 0 -1 0
1033 345 2 -1.1794 -14.559263366544169 8.237104682545386 21.64077340173901 0 -1 0
1207 403 2 -1.1794 -12.835263718796655 6.783719382428691 16.988955521729064 0 0 0
991 331 2 -1.1794 -15.856318845061939 13.74477975392379 16.88141402508488 0 -1 0
992 331 1 0.5897 -15.056113743370833 13.345793858149513 17.223064946094492 0 -1 0
1141 381 2 -1.1794 -17.514730403328052 15.106118320893927 21.538283807876173 0 -1 0
1023 341 1 0.5897 -12.959248610849903 12.676024173733566 17.157418505402855 0 -1 0
1021 341 2 -1.1794 -13.66471699426826 12.4484620012318 17.762981743909496 0 -1 0
1208 403 1 0.5897 -12.094972163339543 6.297225147766509 17.351664501635167 0 0 0
1001 334 1 0.5897 -14.70764483003865 10.809655696333934 17.567630300129554 0 -1 0
1000 334 2 -1.1794 -15.402920275251585 10.153479980417341 17.5200944159657 0 -1 0
1035 345 1 0.5897 -14.406365910490251 9.181467143809908 21.606643506592516 0 -1 0
1098 366 1 0.5897 -17.156158693893982 14.410694110864974 18.232961237877387 0 -1 0
1034 345 1 0.5897 -14.462753614553332 7.945380558969617 20.734147104876225 0 -1 0
1113 371 1 0.5897 -16.601130739329847 11.964649179353177 19.59868229699401 0 -1 0
979 327 2 -1.1794 -12.414138550138194 9.52001125284432 16.559030988321222 0 -1 0
1002 334 1 0.5897 -16.210873308731657 10.650368726814108 17.648596765297 0 -1 0
1005 335 1 0.5897 -13.723062529333127 5.0905127153526255 19.38753736475167 0 -1 0
1118 373 1 0.5897 -13.570696461411568 11.518569370567395 21.680191301395134 0 -1 0
1142 381 1 0.5897 -17.634356489975914 14.882180425230821 20.615275545635363 0 -1 0
57 19 1 0.5897 -11.68376661184094 8.498385578806221 21.710794165331894 1 0 -1
94 32 2 -1.1794 -6.4846126203878915 -1.4320525164306872 3.73168331231594 1 0 0
318 106 1 0.5897 -2.592321126563796 -4.132015747992426 1.4301596726951962 1 1 0
311 104 1 0.5897 -2.812982289503715 -7.979096631913764 3.399370457728085 1 1 0
303 101 1 0.5897 -7.132832040939951 -2.2044929851043884 0.7715943852518599 1 1 0
27 9 1 0.5897 -4.091353952852657 1.9782705389141082 5.255794144231436 0 0 0
25 9 2 -1.1794 -4.276836038791313 1.0457752507465212 5.3671451225893145 0 0 0
294 98 1 0.5897 -4.787766079615819 -2.792766581121798 1.1794994094676894 1 1 0
293 98 1 0.5897 -4.999923543343235 -3.746379508602053 2.3361129238409384 1 1 0
292 98 2 -1.1794 -4.316074306976607 -3.2814132038768786 1.8540932121866913 1 1 0
241 81 2 -1.1794 -1.2660127910090448 -6.251198203561346 5.4143081253831165 0 1 0
26 9 1 0.5897 -4.106481312100431 0.6626929959088823 4.5065597893271025 0 0 0
310 104 2 -1.1794 -3.5352892941313385 -8.376245720650429 3.8858978908027617 1 1 0
88 30 2 -1.1794 -4.41535441596357 0.29003034120060356 2.6095920638013275 1 0 0
89 30 1 0.5897 -4.467188387048199 1.1845084635028371 2.272575628266886 1 0 0
90 30 1 0.5897 -3.6735768764942422 -0.09855723964461305 2.1459387404444454 1 0 0
96 32 1 0.5897 -5.983121056574735 -2.0300985684099384 4.285921842081584 1 0 0
3 1 1 0.5897 -1.431810348661747 -3.3577111444294037 4.445118596890453 0 0 0
95 32 1 0.5897 -5.824281531692982 -0.8711982851306921 3.324741347536215 1 0 0
316 106 2 -1.1794 -1.7352591873344743 -4.5428000797919275 1.543677684043094 1 1 0
103 35 2 -1.1794 -2.8340951724495946 -2.293502931058767 4.029697360090507 1 0 0
242 81 1 0.5897 -1.1541140492009667 -6.634794274143911 4.544410456871399 0 1 0
306 102 1 0.5897 -0.7366726737828753 -7.368468175973385 2.220201838848514 1 1 0
305 102 1 0.5897 -1.5465452562266915 -6.110214133359506 2.4504500589728573 1 1 0
304 102 2 -1.1794 -1.421351160992046 -7.000617220254458 2.778887148963987 1 1 0
104 35 1 0.5897 -3.5545758838792816 -2.4705034105391155 4.634469442751566 1 0 0
105 35 1 0.5897 -3.126070143332826 -2.659599068643673 3.194759160504764 1 0 0
302 101 1 0.5897 -7.253375345670669 -2.1886727930239207 2.280718141348811 1 1 0
243 81 1 0.5897 -0.9456372363799428 -5.353688800099347 5.323922388482451 0 1 0
309 103 1 0.5897 -2.602284591532621 -1.3798354815349096 0.41305297250030265 1 1 0
317 106 1 0.5897 -1.1235903075503995 -3.8089629271152132 1.6038170327072212 1 1 0
201 67 1 0.5897 0.1682474181585576 -8.63325316217522 0.3098085103147308 1 1 0
199 67 2 -1.1794 0.5277613280192988 -8.025647232316018 0.9563069793791465 1 1 0
1262 421 1 0.5897 -1.7876980667579065 -5.703223545626686 0.13354553577103767 0 0 1
632 211 1 0.5897 -4.8475193067155775 -5.8933489313669245 6.679293062377295 1 1 0
464 155 1 0.5897 -2.0344875404323606 0.23646154467963854 10.055088730278811 0 0 0
555 185 1 0.5897 -2.7298277153432515 -6.725217093168288 6.357236372102964 0 1 0
554 185 1 0.5897 -2.8512237793334485 -6.82153916363705 7.863295484586228 0 1 0
553 185 2 -1.1794 -3.342803312908411 -6.960524895879249 7.053728730276246 0 1 0
338 113 1 0.5897 -5.8198528310255275 0.4929901224663791 7.801222916786408 0 0 0
546 182 1 0.5897 -0.26382496032718095 -7.261657409371012 6.579571164518963 0 1 0
443 148 1 0.5897 -7.993473599196995 1.8924646555571751 9.55480849099496 0 0 0
356 119 1 0.5897 0.979076451204179 -7.04463967136569 10.040856358785005 0 0 0
328 110 2 -1.1794 -2.6782934661820823 -0.6495227325447726 7.063615865371194 0 0 0
544 182 2 -1.1794 0.26726106138836947 -7.9117439764879816 7.0396291366195625 0 1 0
456 152 1 0.5897 -4.552008684621004 0.9370244226943587 9.77321437571904 0 0 0
455 152 1 0.5897 -4.30950624349446 1.9202910247947589 8.647818750457816 0 0 0