#include		in.partitions
include		in.temp
variable        temperature equal 85.49
variable	tempDamp equal 100.0
include		in.pressure
variable        pressure equal 8169.6
variable        pressureDamp equal 1000.0 # This is 1 ps
include		in.seed
variable        seed equal 745823

units		real
atom_style	full
read_restart	restart.lmp.${pid}
read_restart	restart.lmp.1
Reading restart file ...
  restart file = 30 Jul 2021, LAMMPS = 30 Jul 2021
  restoring atom style full from restart
  orthogonal box = (-0.013505891 0.050009916 0.027872965) to (24.743507 24.679991 22.782127)
  4 by 4 by 2 MPI processor grid
  restoring pair style lj/cut/tip4p/long/omp from restart
  restoring bond style harmonic/omp from restart
  restoring angle style harmonic/omp from restart
  1920 atoms
  1280 bonds
  640 angles
Finding 1-2 1-3 1-4 neighbors ...
  special bond factors lj:    0        0        0       
  special bond factors coul:  0        0        0       
     2 = max # of 1-2 neighbors
     1 = max # of 1-3 neighbors
     1 = max # of 1-4 neighbors
     2 = max # of special neighbors
  special bonds CPU = 0.002 seconds
  read_restart CPU = 0.008 seconds
include 	in.setup
variable	out_freq equal 1000
variable	out_freq2 equal 10000
variable	out_freq3 equal 1000

timestep	2.0

neigh_modify    delay 7 every 1

include		in.tip4p
# This is TIP4P/Ice

# create groups ###
group ox type 2
640 atoms in group ox
group hy type 1
1280 atoms in group hy

# set charges - beside manually ###
set group ox charge -1.1794
Setting atom values ...
  640 settings made for charge
set group hy charge 0.5897
Setting atom values ...
  1280 settings made for charge

# ### TIP3P Potential Parameters ###
pair_style lj/cut/tip4p/long/omp 2 1 1 1 0.1577 8.5
pair_coeff 1 1*2 0.000 0.000
pair_coeff 2 2 0.21084 3.1668
bond_style  harmonic
bond_coeff  1 450 0.9572
angle_style harmonic
angle_coeff 1 55 104.52
kspace_style pppm/tip4p/omp 1.0e-5
pair_modify tail yes

thermo          ${out_freq}
thermo          1000
thermo_style    custom step temp pe etotal epair emol press lx ly lz vol pxx pyy pzz pxy pxz pyz enthalpy

restart 	${out_freq3} restart.lmp.${pid} restart2.lmp.${pid}
restart 	1000 restart.lmp.${pid} restart2.lmp.${pid}
restart 	1000 restart.lmp.1 restart2.lmp.${pid}
restart 	1000 restart.lmp.1 restart2.lmp.1


include         in.dump
dump            myDump all atom ${out_freq2} dump.water.${pid}
dump            myDump all atom 10000 dump.water.${pid}
dump            myDump all atom 10000 dump.water.1
dump            myDump2 all dcd ${out_freq2} dump.dcd
dump            myDump2 all dcd 10000 dump.dcd
dump_modify     myDump append yes
dump_modify     myDump2 append yes


variable natoms 	equal  "count(all)"                        # NUMBER ATOMS
variable H      	equal  "enthalpy/v_natoms"                 # ENTHALPY-per-atom
variable Vol      	equal  "vol/v_natoms"                 # volume-per-atom
fix AVG all 		ave/time ${out_freq} 1 ${out_freq} v_Vol v_H file vol_enthalpy.dat
fix AVG all 		ave/time 1000 1 ${out_freq} v_Vol v_H file vol_enthalpy.dat
fix AVG all 		ave/time 1000 1 1000 v_Vol v_H file vol_enthalpy.dat




fix 		1 all shake 1e-6 200 0 b 1 a 1
       0 = # of size 2 clusters
       0 = # of size 3 clusters
       0 = # of size 4 clusters
     640 = # of frozen angles
  find clusters CPU = 0.001 seconds
fix             2 all nph aniso ${pressure} ${pressure} ${pressureDamp}
fix             2 all nph aniso 8169.6 ${pressure} ${pressureDamp}
fix             2 all nph aniso 8169.6 8169.6 ${pressureDamp}
fix             2 all nph aniso 8169.6 8169.6 1000
fix             3 all temp/csvr ${temperature} ${temperature} ${tempDamp} ${seed}
fix             3 all temp/csvr 85.49 ${temperature} ${tempDamp} ${seed}
fix             3 all temp/csvr 85.49 85.49 ${tempDamp} ${seed}
fix             3 all temp/csvr 85.49 85.49 100 ${seed}
fix             3 all temp/csvr 85.49 85.49 100 745823


run             250000
PPPM initialization ...
  extracting TIP4P info from pair style
  using 12-bit tables for long-range coulomb (../kspace.cpp:340)
  G vector (1/distance) = 0.37525428
  grid = 30 30 30
  stencil order = 5
  estimated absolute RMS force accuracy = 0.0031784781
  estimated relative force accuracy = 9.5718925e-06
  using double precision FFTW3
  3d grid and FFT values/proc = 5400 960
Last active /omp style is kspace_style pppm/tip4p/omp
Neighbor list info ...
  update every 1 steps, delay 7 steps, check yes
  max neighbors/atom: 2000, page size: 100000
  master list distance cutoff = 10.8154
  ghost atom cutoff = 10.8154
  binsize = 5.4077, bins = 5 5 5
  1 neighbor lists, perpetual/occasional/extra = 1 0 0
  (1) pair lj/cut/tip4p/long/omp, perpetual
      attributes: half, newton on, omp
      pair build: half/bin/newton/omp
      stencil: half/bin/3d
      bin: standard
Per MPI rank memory allocation (min/avg/max) = 10.55 | 10.56 | 10.57 Mbytes
Step Temp PotEng TotEng E_pair E_mol Press Lx Ly Lz Volume Pxx Pyy Pzz Pxy Pxz Pyz Enthalpy 
 1000000    84.087875   -9840.5036   -9519.9223   -9840.5036            0    7776.8699    24.757013    24.629981    22.754254    13874.742    7032.4135    7976.3799    8321.8164   -501.14459   -174.04378   -10.341417   -7946.2814 
 1001000    86.274338   -9838.9449   -9510.0278   -9838.9449            0    8314.9794    24.665166    24.739621    22.717777    13862.544     7645.867     8577.063    8722.0082    296.27613   -645.73485    518.42223   -7828.9803 
 1002000    84.641577   -9831.3213    -9508.629   -9831.3213            0    8496.0657    24.687744    24.736187    22.701549    13863.396    8886.8395    8063.1522    8538.2053    653.45205   -678.72264    -386.9383   -7790.8655 
 1003000    83.975076   -9835.7605   -9515.6092   -9835.7605            0    7405.9394    24.775865    24.697393     22.72982     13908.36    6912.5899    7849.7531    7455.4753   -96.226899    468.43308    209.95007   -8013.3947 
 1004000     85.76114   -9846.8533   -9519.8928   -9846.8533            0    8411.7396    24.632991    24.749029    22.733569    13859.353    8637.9807    7605.1739    8992.0642     715.9722   -83.869769   -141.52447   -7819.6746 
 1005000    87.831775   -9832.7159   -9497.8611   -9832.7159            0    9052.1442    24.666822    24.688005    22.710204    13829.938     8501.323    9073.1946    9581.9148    86.780862   -524.59185   -688.63252   -7672.0847 
 1006000    85.693041   -9824.4985   -9497.7976   -9824.4985            0    8169.5667    24.729322    24.706888    22.733538    13889.841    7917.4225    8145.6613    8445.6164    291.89475   -79.858863   -575.01995   -7842.8959 
 1007000    83.100828   -9834.8996   -9518.0813   -9834.8996            0     8234.791    24.655354    24.769827    22.714488    13871.939    8429.9521     7545.746     8728.675    343.63076    587.00956   -74.271438   -7852.1172 
 1008000    84.253316   -9833.6718   -9512.4597   -9833.6718            0    8811.9432    24.695161    24.675257    22.719426    13844.297     8322.642    8788.1377    9325.0499   -509.70163    -383.6072    851.20846   -7733.2855 
 1009000    85.676697   -9815.9359   -9489.2972   -9815.9359            0    8737.6371    24.612329    24.741977    22.759198    13859.389    8537.7053    9040.9054    8634.3006    783.66819   -657.98784    76.278066   -7723.2026 
 1010000    85.143028   -9827.9142   -9503.3102   -9827.9142            0    8046.0668    24.639368     24.71181    22.781641    13871.363    8466.7405    8374.4304    7297.0296   -314.97761     397.9735   -161.15398   -7875.5941 
 1011000    82.491904   -9828.4991   -9514.0023   -9828.4991            0    7872.9117    24.694003     24.74928    22.714383    13882.095    7980.9832     7457.061     8180.691   -387.76232   -47.423919    190.21537   -7920.0833 
 1012000    87.117339   -9828.1596   -9496.0285   -9828.1596            0    8142.2677    24.724487    24.761511    22.661214    13873.549    6917.9883     8466.438    9042.3769   -568.10716    144.94732    235.44877   -7848.5914 
 1013000    86.075755    -9825.233    -9497.073    -9825.233            0    8502.7945    24.752825    24.703899    22.657576    13854.911    7741.8632    8797.1095    8969.4108    303.16372    -110.0107   -504.83771   -7779.0012 
 1014000    82.745464   -9838.6244   -9523.1609   -9838.6244            0    8848.7955    24.665598    24.696873    22.740035    13852.391    8683.8929    8454.0704    9408.4231    -109.6827    346.80363    184.39718   -7735.5015 
 1015000    84.551852    -9831.202   -9508.8518    -9831.202            0    8378.6025    24.661071    24.684399    22.765486    13858.347    8640.2117    8170.5598    8325.0359    205.22997   -348.29846   -594.76754   -7815.4544 
 1016000    87.531276   -9840.1645   -9506.4553   -9840.1645            0    7939.3724    24.722788    24.735977    22.704616    13884.834    7825.6909    7504.9073     8487.519     42.77038    446.26368    109.80654   -7898.7637 
 1017000    85.189264    -9829.771   -9504.9907    -9829.771            0    8242.5192    24.681019    24.751659    22.709417    13873.096    8350.8658    7786.6267    8590.0651    195.62611      299.623    776.54882    -7837.324 
 1018000    84.397523   -9847.1226   -9525.3607   -9847.1226            0     7383.527    24.670691    24.776913    22.739887    13900.064    7408.1446    7408.5475    7333.8889   -525.71215   -483.44178   -196.55628   -8028.5856 
 1019000    85.205138   -9839.7631   -9514.9222   -9839.7631            0    7743.0831    24.719243    24.689139    22.742683    13879.787    7727.4131    7940.7671    7561.0691   -248.99343   -434.52233   -30.026804   -7947.5483 
 1020000    85.619954   -9840.3506   -9513.9283   -9840.3506            0    8071.8538    24.622687    24.694558    22.818075    13874.447    8817.9414    8404.1359    6993.4841   -156.23317   -303.27521   -152.43808   -7880.6324 
 1021000    85.726711   -9844.6721   -9517.8428   -9844.6721            0    7572.5331    24.721591    24.671438    22.780706    13894.345    7812.5769    7949.3663     6955.656   -404.21025   -205.73971   -63.486537   -7983.3843 
 1022000    86.529925   -9825.7503   -9495.8587   -9825.7503            0    8667.5156    24.635644    24.723654    22.751113    13857.319    8488.1527    9043.4225    8470.9716    -35.18777   -42.804814    -17.49254    -7744.199 
 1023000     82.28472   -9838.0433   -9524.3364   -9838.0433            0    7763.0261    24.637012    24.643178    22.885009    13894.273    8096.9687    8279.5707    6912.5389   -305.44488   -7.8184911    1041.3838   -7951.2856 
 1024000    87.147962   -9822.2024   -9489.9546   -9822.2024            0    7965.7968    24.661999    24.723111    22.781255    13890.218    8086.9955    8015.9168     7794.478    144.08703     178.5992   -371.18557   -7876.2867 
 1025000    85.087177    -9832.845   -9508.4539    -9832.845            0    8299.3364    24.650362    24.752926    22.741822    13876.345    8725.6338    7615.3528    8557.0226   -240.64234   -214.38817    303.34476   -7828.8984 
 1026000    86.234007   -9824.7034     -9495.94   -9824.7034            0    8328.2982    24.715618    24.703078    22.721528    13872.671    8316.9608    8230.7539    8437.1801   -126.74805   -660.43812    281.91821   -7810.9697 
 1027000    88.862308   -9850.4235   -9511.6399   -9850.4235            0    7043.8288    24.695284    24.770445     22.73035    13904.455    7426.1842    6566.6432    7138.6591     -54.4645     -771.459   -275.53814   -8083.2767 
 1028000     85.51849   -9840.5953   -9514.5598   -9840.5953            0    8057.4984    24.727236    24.691022    22.710777    13865.854    7298.7324     8411.178    8462.5847    1.6843473   -505.88501   -216.88937   -7885.1784 
 1029000     82.98479   -9833.6779   -9517.3021   -9833.6779            0    7862.1037    24.725521    24.669782     22.76424    13885.577    7067.0908    8233.4619    8285.7585   -346.50042    -201.5208   -370.65258   -7925.1719 
 1030000    87.505609   -9832.4703    -9498.859   -9832.4703            0    8332.2318    24.610262     24.71355    22.810357    13873.417    8580.9815    8287.1476    8128.5664    87.589048   -117.71241   -174.04996   -7813.0022 
 1031000    87.425668   -9826.2617   -9492.9552   -9826.2617            0    8159.1697    24.639543    24.662952    22.844449    13882.203    8096.7205    9022.1735     7358.615    235.67047   -620.31404    399.00992   -7841.0685 
 1032000    89.175288   -9838.9036   -9498.9267   -9838.9036            0     7832.022    24.748265    24.641256    22.765909    13883.297    7555.5963    8096.7627     7843.707    93.764078   -1061.6561   -15.398139   -7913.1487 
 1033000    85.801851   -9830.0898   -9502.9741   -9830.0898            0    8277.6268    24.652236    24.725877    22.774679    13882.264    8504.7695    7882.2509    8445.8599   -174.70368   -442.54213    323.48585   -7827.0975 
 1034000    82.241893   -9835.0986    -9521.555   -9835.0986            0    8366.4266    24.690867    24.735562    22.707665    13868.536    8843.3998    7721.8693    8534.0108      199.476    24.483285    664.03223   -7829.3752 
 1035000    85.325437   -9851.2553   -9525.9558   -9851.2553            0    8522.6833    24.725415    24.715644    22.659476    13847.309    8428.4716    8129.0548    9010.5235   -783.16107   -249.12943     526.2537   -7804.8102 
 1036000    86.216336   -9836.2612   -9507.5652   -9836.2612            0    8218.5855    24.711106    24.750321    22.666642    13863.095    7561.7774    8464.7271    8629.2521    90.205135   -234.66561    -555.8814   -7845.9397 
 1037000    85.927645   -9837.3187   -9509.7234   -9837.3187            0    7886.9305    24.708852    24.721221    22.732466    13885.741    7428.1543     7863.079    8369.5582   -167.17488   -213.70351   -455.39401   -7912.5467 
 1038000    85.839318   -9831.8292   -9504.5706   -9831.8292            0    7619.9096    24.670459    24.762467    22.763939    13906.522    8026.5915    7353.0255    7480.1119     373.3794    242.18863    456.84318   -7959.1587 
 1039000    87.051861   -9851.3439   -9519.4625   -9851.3439            0    7711.5574    24.689228    24.697379    22.768025    13883.013    8186.4164    7563.1955    7385.0603   -352.19133   -32.070822    390.18745   -7958.1073 
 1040000    84.097212   -9837.7497   -9517.1328   -9837.7497            0    7455.0343     24.71512    24.676906    22.808953    13911.014    6596.5088    8500.8991    7267.6949   -426.38447   -706.54592   -79.950735   -8004.6713 
 1041000    85.162228   -9849.8904   -9525.2132   -9849.8904            0    8682.9794    24.612477    24.677829    22.793962    13844.654    9169.2729    9103.8203    7775.8449    54.551383    -377.1414    373.65244   -7772.0321 
 1042000     85.13309   -9842.5406   -9517.9745   -9842.5406            0    7155.6627    24.750379    24.784648    22.680985    13913.184    6874.4242    6770.5423    7822.0216   -89.962554    286.81342    44.624914   -8066.0224 
 1043000    86.017419   -9826.6946   -9498.7569   -9826.6946            0    8574.3971    24.626622    24.698082    22.761174    13844.036    9535.2957    8438.7221    7749.1735   -1073.1262   -288.84016    399.91766    -7767.577 
 1044000    86.750687   -9836.9876   -9506.2544   -9836.9876            0    8658.6421    24.684581    24.739349    22.681266    13851.006    7932.0013    8438.4295    9605.4955   -619.53489   -381.78617    856.88565   -7757.1852 
 1045000    81.105088    -9838.944   -9529.7344    -9838.944            0    8323.7696    24.718616    24.777155    22.619403    13853.411    8239.8616    7685.2773    9046.1698   -475.40792    365.68766   -46.830358   -7848.0183 
 1046000    86.455227   -9822.6596   -9493.0529   -9822.6596            0     8247.158    24.700751    24.769766    22.680171    13876.451    8106.8183    7559.3984    9075.2574    -622.1368    151.01126     286.0618   -7824.0442 
 1047000    86.219038   -9846.0087   -9517.3024   -9846.0087            0    7924.1498    24.632493    24.723359    22.800047    13885.182    8484.2904    7352.6677    7935.4912   -357.76341    554.59636    922.26443    -7912.653 
 1048000     84.58572   -9834.4482   -9511.9689   -9834.4482            0    8718.1999    24.643076    24.653337    22.798659    13850.961    8816.8517    8848.1571    8489.5911   -306.62997   -99.612086    296.76453   -7750.8745 
 1049000    85.803396   -9832.2117     -9505.09   -9832.2117            0    7883.0393    24.632433    24.705421    22.828145    13892.174     7882.584    8183.0358    7583.4981   -375.55962     167.8533    -194.8941   -7907.9618 
 1050000    87.303154   -9833.0648   -9500.2253   -9833.0648            0    8043.6105    24.683406    24.672035    22.795305     13882.11    8468.8253    7746.2313    7915.7749   -354.95913   -64.458708    -709.4751   -7871.7454 
 1051000    86.243587   -9837.8116   -9509.0117   -9837.8116            0    8338.0842    24.647041    24.697421     22.78199    13867.815    8811.8228    8387.6773    7814.7525    195.73863   -196.44727    154.10593    -7822.652 
 1052000    82.949374    -9824.406   -9508.1652    -9824.406            0    8755.7625    24.735559    24.709469    22.676769    13860.098    7508.7194    8833.4926    9925.0754   -558.80704    32.681377    526.04972   -7738.3164 
 1053000      83.8465   -9831.6471    -9511.986   -9831.6471            0    7932.4536    24.664054    24.787849    22.709048    13883.605    7834.7264    7320.4059    8642.2286   -508.89093   -264.86933   -117.17166   -7905.8377 
 1054000    85.716939   -9830.5714   -9503.7793   -9830.5714            0    8149.7056    24.698873    24.689206    22.748097    13871.688    8795.7051    8101.5627    7551.8491    262.87224     172.6368   -187.17938   -7855.0585 
 1055000    84.399479   -9818.9831   -9497.2138   -9818.9831            0    8581.6165    24.588867    24.722875    22.813392    13868.432    9460.5043    8333.9912     7950.354    327.93844   -421.73501   -380.65418    -7761.523 
 1056000    86.690344   -9828.2162   -9497.7131   -9828.2162            0    8242.5047    24.754193    24.658332    22.742241    13881.798    7432.2078    8411.7399    8883.5664   -222.29586   -517.60533   -106.66973   -7829.0033 
 1057000      82.1237   -9827.6106   -9514.5176   -9827.6106            0    7217.7729     24.64322    24.809183    22.777638     13925.75    8149.1741    6470.4771    7033.6675   -389.93202    277.27468   -395.02892     -8048.64 
 1058000    85.660617   -9842.2557   -9515.6784   -9842.2557            0    8105.7526    24.695792    24.716635    22.727645    13872.883    8199.1491    7754.1999    8363.9087   -274.60625    212.38416    374.09275   -7875.7082 
 1059000    85.806824   -9833.7179   -9506.5832   -9833.7179            0    8417.6618    24.606028    24.696634    22.795175     13852.31    9363.8808     8165.182    7723.9226   -312.83425   -288.63988    456.98306   -7806.0325 
 1060000    84.265434   -9841.1679   -9519.9096   -9841.1679            0     8633.589    24.733978    24.666742    22.696212     13847.11    7883.6919    9165.8751    8851.2001    257.19336    510.25021    6.3429909   -7776.3917 
 1061000    83.862109   -9838.5273   -9518.8067   -9838.5273            0    7851.2526    24.670705    24.711029    22.756337     13873.14    8435.2879    7947.3148     7171.155    -105.7196    324.91115    150.53241    -7930.298 
 1062000    86.808382   -9840.7696   -9509.8165   -9840.7696            0    8418.4517    24.671051    24.708678    22.724923    13852.864    8228.2546    9006.8958    8020.2047   -214.69362   -379.47691    295.14111   -7809.0382 
 1063000    84.039092    -9816.861   -9496.4657    -9816.861            0    7742.5709    24.681187    24.701971    22.785293      13891.6    8065.5914    7740.9219    7421.1993    136.26822   -46.383988    137.43497   -7927.8616 
 1064000    85.301464   -9831.4455   -9506.2374   -9831.4455            0    8376.5854    24.610742    24.772556    22.739406    13863.556    8536.6721    7877.5487    8715.5354   -123.35741   -243.54435    64.837184   -7812.6112 
 1065000    82.581443   -9840.7826   -9525.9445   -9840.7826            0    7974.4782    24.757916    24.705813    22.694923    13881.677    7410.3888    8361.4555    8151.5903    679.80062    723.41019    -224.2054   -7911.5112 
 1066000    87.180293   -9814.6836   -9482.3126   -9814.6836            0    9033.0449    24.648957    24.755112    22.675453    13836.283    8647.9357    9276.4856    9174.7134   -553.47128    145.65468    115.89846   -7659.5526 
 1067000    82.210963   -9835.8703   -9522.4446   -9835.8703            0    8842.8108    24.689833     24.69191    22.733477    13859.217    8552.1386    9193.9468     8782.347    49.977313    232.96487    237.38018   -7735.1139 
 1068000    83.852243   -9839.5945   -9519.9115   -9839.5945            0    8609.7969    24.601193    24.733078    22.764755    13851.516    8885.7748    8522.6658    8420.9501    246.86189     259.8424    115.54751   -7780.6451 
 1069000    85.716528   -9849.4709   -9522.6804   -9849.4709            0    8162.1414     24.75356     24.65853     22.71548     13865.22    7440.6592    8536.6324    8509.1325    74.067868    8.0446485    435.48337   -7872.2136 
 1070000    83.408402   -9836.0864   -9518.0956   -9836.0864            0    8160.6337    24.626788    24.721664    22.784134    13871.327    8143.9561    8515.1987    7822.7463   -446.16755   -670.40941    845.64713   -7867.2069 
 1071000    85.931637   -9840.3303   -9512.7197   -9840.3303            0     7344.831    24.731499     24.65449    22.803717    13904.395     6420.685    8456.8071    7157.0008   -366.39958    505.83119   -478.01371   -8023.3251 
 1072000    84.154904   -9825.8828    -9505.046   -9825.8828            0    7740.5915    24.672176    24.741505    22.777174    13903.797    7970.8447    7915.9976    7334.9323    111.23009   -345.87503    647.54084    -7935.466 
 1073000    82.137157   -9845.4949   -9532.3506   -9845.4949            0    8405.3701    24.705314    24.777592    22.630051    13852.718     7983.131    7931.7002    9301.2791     421.5355    320.66973   -360.97718   -7834.2331 
 1074000    87.483304   -9837.7333    -9504.207   -9837.7333            0      7903.27    24.659486    24.773229    22.723753    13881.829    8463.5186    7021.3178    8224.9736   -5.4795398    155.99197    26.802844   -7904.1723 
 1075000    86.707392   -9821.6906   -9491.1225   -9821.6906            0    9165.6741    24.645814    24.704898     22.73569    13843.132    9805.8895    8520.4878    9170.6449    340.69671    260.00302    667.26146   -7640.6839 
 1076000     86.12367   -9832.0704   -9503.7277   -9832.0704            0    8702.3619    24.687744    24.726917    22.682821    13846.769     8798.048     8611.794    8697.2437   -268.78003    -260.9971    687.96476   -7746.3648 
 1077000    83.568984   -9835.2336   -9516.6305   -9835.2336            0    8911.8542    24.643302    24.704389    22.723391    13833.948    9128.7914    8708.2722     8898.499   -259.95548   -219.69039    -240.5782   -7718.6288 
 1078000    86.566626   -9828.0198   -9497.9884   -9828.0198            0     8395.349    24.625158    24.752023    22.737513    13859.025    8924.3021    8590.3457    7671.3992   -556.18745   -400.81117     388.0708   -7801.1232 
 1079000    83.289714    -9828.505   -9510.9666    -9828.505            0    8845.5457    24.672951    24.672887    22.747678    13847.716    8655.8379     9190.798    8690.0012    70.652482   -42.500408   -38.459196   -7724.5669 
 1080000    84.352796   -9836.6801   -9515.0887   -9836.6801            0    7912.4922    24.660429    24.728833    22.771481    13886.587    7723.1762      7931.03    8083.2703     230.3546    42.897166    866.87934   -7912.6379 
 1081000    90.730083   -9844.1433   -9498.2388   -9844.1433            0      8269.72     24.69407    24.724995    22.711808    13866.939    8027.1094    8484.0894    8297.9611    298.05809   -856.17355   -499.13606   -7825.8113 
 1082000     84.56844   -9831.1788   -9508.7653   -9831.1788            0    8842.1513    24.663071    24.713779    22.710528    13842.468    9216.9356    8454.3588    8855.1596     226.8312    297.07362    439.73961   -7723.7277 
 1083000    85.687008   -9854.4849   -9527.8069   -9854.4849            0    8197.5127    24.692548    24.677401    22.761668    13869.775     7324.502    9254.8035    8013.2326    108.38069   -681.18418    145.44313   -7869.6432 
 1084000    85.398985   -9822.1216   -9496.5417   -9822.1216            0    7764.7617    24.702815    24.729275    22.742921    13893.257    7856.6962    7632.6718    7804.9171    99.847542    -463.2839    212.28401   -7923.2542 
 1085000    84.120863   -9832.7682   -9512.0611   -9832.7682            0    8742.8309    24.683392      24.6751    22.737811    13848.809    8682.1952      9221.92    8324.3773    97.074802    100.40297    182.43288   -7746.2657 
 1086000    86.693989   -9838.1963   -9507.6793   -9838.1963            0    7874.6803    24.603616     24.75184    22.809925    13890.897    7890.4472    8070.8951    7662.6986    20.519332    5.4347556    86.551852   -7912.3913 
 1087000    84.115319   -9830.3082   -9509.6223   -9830.3082            0    8503.2731    24.704396    24.665406    22.750728    13863.019    8233.9823    8716.7602    8559.0769    185.93138    -403.0371    61.761242   -7790.4483 
 1088000    88.574376   -9833.3119    -9495.626   -9833.3119            0    8333.4857    24.636729    24.791103    22.692369    13859.856    8898.9678    7394.3632    8707.1263   -171.55031     351.5694    379.07501   -7811.1636 
 1089000    84.889664   -9847.3033   -9523.6652   -9847.3033            0    8426.2586    24.700773    24.675462    22.719495      13847.6    8437.1718    8101.6168    8739.9871   -538.48265   -370.84158    869.06937   -7821.9567 
 1090000    87.693676   -9844.0338   -9509.7055   -9844.0338            0     6914.417    24.721316    24.756623    22.750442    13923.641    6918.9783    6716.9999    7107.2729   -17.247636   -433.11785    101.92004     -8105.65 
 1091000    82.318249   -9835.0974   -9521.2627   -9835.0974            0    8528.1039    24.641363    24.658056    22.816817    13863.683    8530.7769    9469.6722    7583.8625    22.739232   -159.57209   -41.163043   -7796.9858 
 1092000    86.248484   -9832.6223   -9503.8037   -9832.6223            0    8103.3089    24.643635    24.653636    22.824023    13866.854    7951.1062    9038.7939    7320.0268   -741.84972     346.8678    942.50789   -7865.0404 
 1093000    83.533064   -9821.7656   -9503.2994   -9821.7656            0    8908.1114    24.639055    24.699744    22.775276     13860.54    9272.3558    8981.0298    8470.9487   -114.17084     155.2916    944.99625   -7702.5981 
 1094000    84.550376   -9832.0007   -9509.6561   -9832.0007            0    8147.1432     24.66901     24.72285    22.756516    13878.931    8249.1397    8578.9923    7613.2977   -659.63534   -773.58536    170.29548    -7860.593 
 1095000    83.927144   -9843.9938   -9524.0253   -9843.9938            0    9099.4979    24.684481    24.665003    22.711985    13828.029    8795.2427    9154.0837    9349.1673    88.144923   -707.78274   -588.89241   -7688.9512 
 1096000    86.142867   -9839.8214   -9511.4055   -9839.8214            0    7722.7849    24.673509    24.752315      22.7373    13886.271    8021.2776    7211.7885    7935.2885   -289.81875   -264.25729   -185.49084   -7947.4101 
 1097000     85.07476   -9825.9313   -9501.5875   -9825.9313            0    8370.4639    24.724637    24.623079    22.774351    13864.949    7863.9748    9418.3866    7829.0302   -449.82646   -75.686927    231.80426    -7809.029 
 1098000    80.995263   -9839.5995   -9530.8087   -9839.5995            0    7597.3832    24.642617    24.766744    22.779816    13902.918     8253.544    7003.5902    7535.0156   -203.83475   -183.80441   -442.68517   -7990.3647 
 1099000    87.083293   -9840.6946   -9508.6934   -9840.6946            0    7462.6261    24.717396    24.743756    22.732118    13902.991    7253.5156    7872.7351    7261.6277    111.82964   -367.50163   -376.56738   -7995.5649 
 1100000     85.74102   -9849.4854   -9522.6016   -9849.4854            0    8541.3676    24.593728    24.774241    22.746848    13859.448    9348.4763    8263.9543    8011.6723    427.16169    495.68807   0.27359853   -7796.1705 
 1101000    85.665566   -9843.7176   -9517.1214   -9843.7176            0    7603.2123    24.724396     24.64423    22.805768    13895.867    7227.2385    8222.2447    7360.1538   -115.48803   -543.82291     102.0264   -7976.2775 
 1102000    86.302424      -9827.8   -9498.7758      -9827.8            0    8358.2306     24.62465     24.74226    22.766786    13871.108     8506.837     8512.058    8055.7969   -50.884384    76.276979    864.87915   -7807.9401 
 1103000    86.615649   -9838.7628   -9508.5445   -9838.7628            0    7480.5558    24.623078    24.807803    22.767408    13907.346    7790.1389    7304.9887    7346.5399   -158.01718   -107.52879   -383.81577   -7991.3054 
 1104000    86.404378   -9839.5241   -9510.1112   -9839.5241            0    8514.8887    24.642174    24.674559    22.790359    13857.331    9042.9311    8803.0916    7698.6434   -30.259297     -216.645    491.89576   -7789.2951 
 1105000    86.466599   -9829.5436   -9499.8934   -9829.5436            0    8714.3051    24.557572    24.724617    22.814413    13852.377     9626.583    7835.7252    8680.6073    208.01992   -258.12731     460.9514   -7739.4059 
 1106000     84.60402   -9845.1493   -9522.6002   -9845.1493            0     7737.025    24.777476    24.673534    22.718872    13889.135    6923.0097    8165.6018    8122.4635    307.54193    345.82873    408.99888   -7955.3978 
 1107000    87.218137   -9838.8039   -9506.2886   -9838.8039            0    8219.8791    24.605474    24.804419    22.712926    13862.254    8867.8328    7433.3469    8358.4578    163.02276   -780.39701    40.886673   -7844.5022 
 1108000    84.349285   -9830.0935   -9508.5156   -9830.0935            0    8560.8261    24.672928    24.699214    22.730235    13851.849    9010.6253    8148.7226    8523.1304   -565.16892   -160.69938   -1.1758847   -7779.1002 
 1109000     84.39318    -9834.707   -9512.9617    -9834.707            0    8455.3891    24.631895     24.74885    22.726165    13854.121    8888.1184    7911.8341    8566.2149   -69.403214    110.22271    347.44731   -7804.5659 
 1110000    85.561079   -9846.8663   -9520.6684   -9846.8663            0    7911.1319    24.679985    24.749246    22.720998    13878.236    8216.8891    7822.2697    7694.2369    71.987302   -124.86035    198.03218   -7919.4566 
 1111000     84.54988   -9833.7323   -9511.3896   -9833.7323            0    8002.8358    24.693536    24.731976    22.714629    13872.277    7949.1005    7882.5627    8176.8444   -319.15769    139.68638   -17.961704   -7892.3125 
 1112000    84.896956   -9825.7357   -9502.0698   -9825.7357            0    9452.6464    24.576974    24.682575    22.797151    13829.276    10411.771    9248.3657    8697.8021    24.617887    -740.7908    237.15098   -7595.6052 
 1113000     84.90946   -9834.6298   -9510.9162   -9834.6298            0    7732.3379    24.683517    24.704814    22.773113    13887.083    7971.0197    8095.6156    7130.3784   -548.14146   -552.73134   -403.88453   -7944.8946 
 1114000    86.416328   -9813.4112   -9483.9527   -9813.4112            0    8490.4393    24.684078     24.68148    22.741591    13855.077    8579.9656    8589.3021    8302.0501   -374.60416    173.59909    40.698363   -7768.3568 
 1115000    88.668325   -9833.7341     -9495.69   -9833.7341            0     7909.758     24.67624    24.800917     22.71038    13898.602    7650.1561    7675.2433    8403.8745   -347.74086     241.9435   -87.785417   -7892.4069 
 1116000    82.616568     -9831.12    -9516.148     -9831.12            0    8632.7274    24.751458    24.645605    22.711707    13854.474    7691.0803    9380.6937    8826.4082    162.05592   -214.93106    322.37978    -7771.877 
 1117000    84.315002   -9843.0463   -9521.5991   -9843.0463            0    9182.3772     24.68468    24.726186    22.644447    13821.219    8977.0143    8263.1812    10306.936   -194.35068   -108.29135     3.625195   -7670.7229 
 1118000    84.735497   -9849.5862   -9526.5358   -9849.5862            0    8519.9591    24.717228    24.712701    22.685534    13856.992    8208.8426    7806.5112    9544.5236    53.049563    31.987538    610.78004   -7804.7371 
 1119000     83.48959   -9825.8542   -9507.5538   -9825.8542            0    8736.7617    24.697018    24.699792    22.707863    13852.051    9042.9023    8142.5366    9024.8461   -8.8347948    160.39306    318.29045    -7742.571 
 1120000    82.651982   -9832.3305   -9517.2235   -9832.3305            0    8050.9066    24.699091     24.69542    22.758473    13881.631    7651.8274    8054.3501    8446.5423   -229.16155   -106.02078   -45.709288   -7887.3226 
 1121000    85.446394   -9842.0378   -9516.2772   -9842.0378            0    7667.6704    24.637366    24.747745    22.786043    13893.089    7876.7989    8065.1939    7061.0184   -159.31399    307.07857    15.264075   -7962.6811 
 1122000    85.719024   -9833.9829   -9507.1829   -9833.9829            0    6682.9203    24.785515    24.729017    22.726523    13929.573    6214.3067    7119.1486    6715.3055    162.72932   -670.23887    383.43133   -8149.5574 
 1123000    83.292411   -9835.8691   -9518.3204   -9835.8691            0    7840.0829    24.679116    24.720295    22.748142    13878.074    7403.4296    8438.6537    7678.1654    -628.0182   -68.523095   -255.98133   -7931.5075 
 1124000     86.57115   -9828.6769   -9498.6282   -9828.6769            0    8071.3464    24.627311    24.714382    22.802191    13878.526    8009.8954    7949.4026    8254.7412    232.28395    -191.5252    56.058057   -7864.9549 
 1125000     87.15773   -9827.6461   -9495.3611   -9827.6461            0    8030.7511    24.689173    24.680573     22.77534    13877.993    8069.6139    8810.0182    7212.6214   -305.78924   -350.29912    -38.16314   -7869.9669 
 1126000    86.602219   -9846.0396   -9515.8724   -9846.0396            0    7414.3394    24.714908    24.696746    22.788882    13909.828    7018.2495    7506.9225    7717.8464   -92.093207    118.47487    619.77459   -8011.7953 
 1127000    86.451956    -9835.714   -9506.1197    -9835.714            0    7805.2624    24.720503    24.750982    22.698344    13888.134    8099.9062    7459.4834    7856.3977    32.539056    63.414774    75.263531   -7925.2092 
 1128000     81.99114   -9826.1972   -9513.6096   -9826.1972            0    8012.8632     24.74265    24.703427    22.701546    13875.826    7797.2419    7888.5876      8352.76   -146.25937    353.57206    671.23384    -7892.089 
 1129000    85.598281   -9832.2037    -9505.864   -9832.2037            0    7616.2589    24.658894    24.777522     22.74088    13894.365    8305.3164    6693.0719    7850.3885    -364.9469   -326.64211   -424.97983   -7962.5428 
 1130000    86.872014   -9852.7245   -9521.5287   -9852.7245            0    8101.0351    24.693125    24.677074    22.751466    13863.698    7673.7622    8531.5415    8097.8016   -195.95442   -468.76155   -258.67384   -7883.5981 
 1131000    83.895423    -9843.748   -9523.9004    -9843.748            0    7601.9635    24.725868    24.664408    22.777314     13890.72    7388.5854    7106.3638    8310.9412   -346.79617    236.67338    396.57647   -7983.8801 
 1132000    85.038083   -9835.4499   -9511.2459   -9835.4499            0    8542.9721    24.623224    24.763545    22.720513    13854.021    8428.7188    8377.7221    8822.4756   -382.26957    78.258996   -220.38105   -7785.1667 
 1133000    86.918016   -9850.3238   -9518.9527   -9850.3238            0    7298.7214    24.752715    24.703521    22.733714    13901.193    6401.4549    7906.5353    7588.1738      140.871   -391.53961   -89.947363   -8039.2491 
 1134000    83.296214   -9843.5067   -9525.9436   -9843.5067            0    7525.3953    24.673459    24.753131    22.741376     13889.19     7410.832    7411.3243    7754.0298      110.419   -1002.9978   -26.602391   -8001.6026 
 1135000    83.575169   -9846.6563   -9528.0297   -9846.6563            0    8110.4006    24.708432    24.636431    22.788613    13872.057    8160.3762    8412.3308    7758.4948   -280.66376   -644.36656    471.29994   -7887.2167 
 1136000    85.986743   -9837.5115   -9509.6908   -9837.5115            0    7898.4226    24.665336    24.688929    22.810969    13890.985    7654.9226    8513.3154    7527.0298    302.76284   -59.880877    120.84598   -7909.5829 
 1137000    85.222331   -9836.1083    -9511.202   -9836.1083            0    9042.9667    24.591727    24.654404    22.815421    13832.861    9169.6274    9615.1319    8344.1407   -343.85617    186.99645    397.91517   -7686.8911 
 1138000    85.865959   -9838.2879   -9510.9277   -9838.2879            0    7937.1515    24.672193    24.718148    22.766654    13884.265    8150.7413    7094.7805    8565.9326   -130.80923   -891.96256    274.80767   -7903.7517 
 1139000    83.229019    -9844.196    -9526.889    -9844.196            0    7290.3234    24.601643    24.801593    22.776767     13897.47    8515.5806    6460.8693    6894.5204    237.21747   -272.89549    545.40839   -8049.2837 
 1140000     86.47013   -9839.0709   -9509.4073   -9839.0709            0     8204.824     24.69868     24.68277    22.748197    13868.025    8725.6323    8041.7206    7847.1191   -541.08445    20.541633    212.93343   -7849.9741 
 1141000    82.608907   -9838.2543   -9523.3115   -9838.2543            0    8004.8491    24.673637    24.759071    22.710246    13873.606    8286.6954    7065.0954    8662.7565   -609.21205    -278.9812    259.06969   -7903.6719 
 1142000    82.159971   -9842.9172    -9529.686   -9842.9172            0    7095.2771     24.75673    24.722057    22.732792    13913.316    7280.8158    7076.6863    6928.3292   -307.94359   -71.617072   -46.792655    -8089.973 
 1143000    85.868269   -9842.8927   -9515.5236   -9842.8927            0    7547.6155     24.70831    24.684153    22.791321    13900.511    7514.0072     7601.525    7527.3144   -296.66844    211.47348     136.5226   -7985.4355 
 1144000    86.547213   -9837.3683   -9507.4109   -9837.3683            0    9109.5074    24.612569    24.760496     22.68549    13824.978    10113.013    8080.8998     9134.609    484.64693   -162.32164    502.37488   -7670.7235 
 1145000    87.880094   -9829.0063   -9493.9673   -9829.0063            0    7822.6969    24.773034    24.696141    22.698673    13887.011    6970.2032    7915.6774      8582.21   -776.77648   -31.164401    429.92767   -7909.6537 
 1146000    84.655389   -9836.8152   -9514.0702   -9836.8152            0    8322.3044    24.708357    24.716691    22.708625    13868.358    7994.4122    8203.6896    8768.8113   -456.69467   -348.69366   -421.82488   -7830.8361 
 1147000    86.670284   -9846.9381   -9516.5115   -9846.9381            0    8115.1273    24.640572    24.724399    22.769094    13871.463    8421.3833    7445.0979    8478.9006    199.15647   -576.44462   -447.66828   -7874.8126 
 1148000    85.686414   -9847.4137    -9520.738   -9847.4137            0    8651.1656    24.713565    24.605334    22.767824    13844.784    8093.7372     9601.472    8258.2877   -490.08372   -118.15783    333.27086   -7773.9641 
 1149000    85.122604   -9838.7586   -9514.2324   -9838.7586            0    7449.8452    24.619701    24.748278    22.815302    13901.255    7860.9866    7071.6186    7416.9303   -103.29193   -625.55703   -309.37119    -8003.884 
 1150000    83.505644   -9838.7857   -9520.4241   -9838.7857            0    7749.1347    24.726522    24.679558    22.755691    13886.424    7251.7571    8114.5021    7881.1449    159.91062    84.811573    269.72276   -7951.0752 
 1151000    85.652601   -9835.4127   -9508.8659   -9835.4127            0    7954.5226    24.635927    24.705739    22.820631    13889.749    8167.6961    8121.1708     7574.701   -607.49356   -724.09008    615.76536   -7897.5362 
 1152000    84.778392   -9841.5895   -9518.3756   -9841.5895            0    8216.1364    24.663404    24.673165     22.79806    13873.172     8155.182    8628.7051     7864.522   -301.86261   -117.97164    366.20973   -7856.0377 
 1153000    85.182099   -9834.1742   -9509.4212   -9834.1742            0    7584.8355    24.630442    24.765767    22.794579    13904.506    8008.6444    7369.4047    7376.4575   -50.451334    333.19337    83.006791   -7971.3459 
 1154000    83.785367   -9845.9277   -9526.4997   -9845.9277            0    7834.5132    24.660824    24.740069     22.76282    13887.836    7895.4446     8003.666     7604.429   -120.15161   -331.59628   -337.99859   -7939.6987 
 1155000    85.546364   -9837.1758    -9511.034   -9837.1758            0     8369.449    24.701563    24.753893    22.666974    13859.944    8821.2281    7312.9619     8974.157    310.09565   -84.238863    411.05494   -7819.2916 
 1156000    82.371694   -9853.1528   -9539.1144   -9853.1528            0     8914.001    24.631725     24.63401    22.800373    13834.769    9107.7488    8965.3973    8668.8569   -603.25598   -145.27244    -110.3957   -7740.5729 
 1157000    85.727061   -9838.7507     -9511.92   -9838.7507            0    9014.5591    24.635397    24.668222    22.770621    13837.967    9041.3057    9188.0361    8814.3354   -583.78043   -19.016637    510.14716   -7692.6688 
 1158000    85.287769   -9839.0224   -9513.8665   -9839.0224            0    7786.1725    24.716356    24.764225    22.701534    13895.187     7672.034    7019.3896    8667.0939   -464.99406   -497.43451    813.63295   -7936.0217 
 1159000    87.570455   -9836.4521   -9502.5936   -9836.4521            0    8022.8951    24.687862    24.791838    22.667963    13874.096    8965.6419    6743.3877    8359.6558    332.58276    -43.47809    160.55495   -7879.2453 
 1160000      85.5817   -9832.9896   -9506.7131   -9832.9896            0    8952.2796    24.718119    24.655463    22.694639    13830.945    8638.9379     9292.309    8925.5919   -341.95126   -425.83199    25.701646   -7700.9475 
 1161000    83.694697   -9844.0999   -9525.0176   -9844.0999            0    8027.0067    24.636224    24.744303      22.7439    13864.822    8285.4619    8209.6439    7585.9143   -639.68761   -382.46094     106.7299    -7901.923 
 1162000    85.223233   -9842.3811   -9517.4713   -9842.3811            0    7247.4509    24.718962    24.679008    22.792372    13904.247    7248.6401    7348.0371    7145.6755     186.4701   -319.63867   -614.74003   -8047.8392 
 1163000    84.721353   -9831.8787   -9508.8823   -9831.8787            0    7771.8501     24.63769    24.733143    22.792282    13888.876    8293.7306    7865.9155    7155.9043    248.01964    96.565849    529.46539   -7934.6551 
 1164000    83.683455   -9840.3249   -9521.2854   -9840.3249            0    7564.6126    24.801701    24.673066     22.69981    13890.786    6355.0643    8655.3821    7683.3913    299.92235   -966.14943   -926.25261   -7988.8246 
 1165000    87.125829   -9844.4033   -9512.2399   -9844.4033            0    8101.4098    24.709866    24.712642    22.713891    13870.148    7477.1081    8295.1693     8531.952    4.4177008   -768.12524    117.15648   -7873.4714 
 1166000    87.752713   -9834.0257   -9499.4724   -9834.0257            0    8620.9034     24.70239    24.710719    22.690184    13850.402    8727.5354    7951.9921    9183.1826   -202.29294   -187.30658    278.33942   -7758.1025 
 1167000    82.175328   -9842.6098   -9529.3199   -9842.6098            0    8515.7619    24.714911    24.685989    22.703568    13851.719    8474.8439     8315.298    8757.1438    -103.8487   -373.60959    2.4332403   -7809.0243 
 1168000    85.519932   -9820.8471   -9494.8061   -9820.8471            0    8638.7943    24.672418    24.739035     22.71239    13863.002     7836.184    9142.5725    8937.6263   -574.10284    155.52178    824.59917   -7748.2348 
 1169000    83.843605   -9827.4118   -9507.7618   -9827.4118            0    8523.0029    24.680021    24.729012    22.712996    13862.026    8792.9849     8451.624    8324.3997    203.43118    -131.4782    484.96337   -7784.7222 
 1170000    85.469977   -9844.6332   -9518.7826   -9844.6332            0    7819.6867    24.609952    24.757693    22.794682    13888.472    8556.9905    7479.4261    7422.6433   -209.15017    233.64347    207.05027    -7934.912 
 1171000    85.257123   -9839.6537   -9514.6147   -9839.6537            0    8386.4317    24.636851    24.652879    22.828249    13865.177    8930.9384    8436.4018     7791.955   -398.91227    465.30998    3.3130652   -7818.7994 
 1172000    87.197666   -9849.0532   -9516.6159   -9849.0532            0    8012.5461     24.63251    24.755818    22.758355    13877.998    8545.1134    7922.8033    7569.7214   -459.51574   -129.54555   -119.80305   -7894.9057 
 1173000    83.230333   -9829.9927   -9512.6807   -9829.9927            0    8023.6351    24.679242     24.69754    22.770019    13878.704     8314.956    8184.0623     7571.887   -7.9357697   -688.82163    9.6067361   -7888.6435 
 1174000    86.003094   -9847.5499   -9519.6669   -9847.5499            0     7634.731    24.695786    24.777952    22.679377    13877.761    7627.6915    7158.8962    8117.6052   -322.41715   -600.29476    142.29583   -7974.4516 
 1175000    84.716715   -9835.1741   -9512.1953   -9835.1741            0    8560.4981    24.755496    24.664446    22.702508    13861.711    7826.7886    9056.7283    8797.9773    394.27835   -375.50498    191.32201    -7781.615 
 1176000    85.464593   -9843.5788   -9517.7488   -9843.5788            0    8568.9693    24.683935    24.738923    22.698664    13861.029    8139.4267    8402.1952     9165.286    391.20406    -298.0897    501.42831   -7785.5411 
 1177000    87.334722   -9837.4514   -9504.4916   -9837.4514            0    8496.1616    24.658288    24.746455    22.718125    13862.718    8636.7022    8108.8927      8742.89   -29.377457   -40.235413    118.39142   -7786.7926 
 1178000    84.750828   -9840.6435   -9517.5347   -9840.6435            0    7850.3923    24.705985    24.687603    22.776454    13892.078    7166.7517    8613.5466    7770.8784   -293.51463   -479.79027    -114.5414   -7927.0318 
 1179000    84.169896   -9833.6508   -9512.7567   -9833.6508            0    8771.5937    24.612424    24.670038    22.808545    13849.108    8791.3026    8734.0188    8789.4597   -183.56096    196.54631    -81.39787   -7741.1138 
 1180000       83.593   -9839.8998   -9521.2052   -9839.8998            0    7809.7335    24.687689    24.656727    22.821063    13891.583    7483.0292     8794.773    7151.3984    -6.663649    535.31951    732.57402   -7938.9963 
 1181000    84.320842   -9831.5451   -9510.0756   -9831.5451            0    8273.0732    24.666794    24.713307    22.750981    13868.954    7722.9422    8625.8933    8470.3842    343.01883    27.301235   -63.829428   -7836.7268 
 1182000    84.125757   -9819.7591   -9499.0334   -9819.7591            0    8224.3389    24.738635     24.69988    22.699628    13870.411     7179.238    8588.2534    8905.5255   -225.09686   -109.85197   -61.974376   -7835.3671 
 1183000       83.763    -9828.078   -9508.7352    -9828.078            0    8717.7768    24.589567    24.811088    22.687744    13841.654    9549.5559    7571.6537    9032.1209   -387.87309   -357.69967    30.065621   -7748.9096 
 1184000    86.088688   -9838.6185   -9510.4091   -9838.6185            0    7979.1603    24.662716    24.727489    22.757362    13878.509    8191.1725     7640.386    8105.9225   -394.03009    114.93389    135.17293   -7895.3966 
 1185000    86.323082   -9823.8858   -9494.7828   -9823.8858            0    7943.2242    24.770529     24.68631    22.728153    13898.106    7454.0335    8301.0594    8074.5796    70.973516   -98.081738    304.74343   -7884.7738 
 1186000    88.008856   -9834.2921   -9498.7622   -9834.2921            0    8270.5891    24.663394    24.734421    22.728669    13865.279    8932.3131    7762.7985    8116.6557     265.0436    191.81245    -284.1166   -7826.3592 
 1187000    82.629355    -9844.022   -9529.0012    -9844.022            0    8104.8551    24.655228    24.775211    22.698352    13865.026    8302.1808    7067.1247    8945.2598   -502.56761    28.029892    210.46343   -7890.1412 
 1188000    86.439224   -9829.2558     -9499.71   -9829.2558            0     7674.288    24.769608    24.666169    22.739751    13893.336    7147.0617      8388.93    7486.8724   -455.11615   -245.16845   -237.88926   -7944.7453 
 1189000    80.998381    -9839.299   -9530.4962    -9839.299            0    8306.6481    24.669617    24.685123    22.779287     13871.96    8350.1977    8856.8143    7712.9323    200.06007    34.471885   -22.774541   -7849.9923 
 1190000    86.808863   -9830.2429   -9499.2879   -9830.2429            0    8419.1688    24.657508    24.713522    22.767993    13874.219    8070.5303    8536.6487    8650.3275    110.30376   -176.03949   -73.333552   -7795.7427 
 1191000    86.624551   -9836.8246   -9506.5724   -9836.8246            0    8184.6222    24.706022    24.679149    22.737578    13863.637    8384.4592    8462.1295    7707.2781   -180.73105    210.54002   -370.60406   -7851.7487 
 1192000    84.018588   -9822.1031   -9501.7859   -9822.1031            0    8849.7484    24.686027    24.670213    22.738165     13847.76    8899.3558    8785.6654     8864.224   -248.04327    523.83901    968.59356   -7714.5316 
 1193000    86.674589   -9837.3507   -9506.9076   -9837.3507            0    8932.3933    24.596788     24.65618    22.813887    13835.775    9177.2925    9117.5133    8502.3742   -290.97002   -693.82778    86.394869   -7704.5241 
 1194000    84.364444   -9838.0394   -9516.4037   -9838.0394            0    8289.8433     24.69276    24.703736    22.753271    13879.574    7655.7532    7950.1776    9263.5991   -364.80204    307.03254    189.66965    -7838.379 
 1195000    81.352474   -9823.6266   -9513.4739   -9823.6266            0    7565.8922    24.721847    24.790366    22.691661    13906.894    7490.9694    6841.9591    8364.7481   -81.981357   -329.78244    -426.2103   -7978.9764 
 1196000    86.267515   -9841.1627   -9512.2715   -9841.1627            0    7694.8183    24.747349    24.719684    22.720862    13899.411    7207.7001    7632.4054    8244.3496   -467.95118    605.63531    269.73836   -7952.4652 
 1197000    83.711955   -9828.3453   -9509.1972   -9828.3453            0    8564.8473    24.678649    24.691664    22.734778    13853.594    8436.8465    8400.7664    8856.9289   -72.973106    624.11007    57.314366   -7778.7515 
 1198000    87.794553   -9841.8577   -9507.1449   -9841.8577            0    7664.7188    24.628209    24.699686    22.828048    13886.507    8717.4484    7284.4129    6992.2952   -233.53871   -180.22749    487.59374   -7954.8824 
 1199000    85.479488   -9825.6723   -9499.7855   -9825.6723            0    8391.9658    24.656369    24.653243    22.821989    13872.562    8809.7598    8746.4475    7619.6902   -291.73485     481.2448    415.86775   -7801.9474 
 1200000    84.641371   -9836.6087   -9513.9172   -9836.6087            0     8244.288    24.683213    24.693542    22.772778    13880.372    8723.9597     7377.118    8631.7862   -199.37941   -839.65585    724.37537   -7845.0179 
 1201000    88.115941   -9831.3745   -9495.4363   -9831.3745            0    8800.7716    24.634644    24.652628    22.793068    13842.429    9493.5102    8779.4139    8129.3908    397.12043   -236.50201    672.63933   -7718.7574 
 1202000    86.444203   -9844.7862   -9515.2214   -9844.7862            0     8531.554    24.677856    24.763092    22.680006    13859.752    8137.5805    8435.4452    9021.6362    170.42844    139.67401    689.12148   -7790.7362 
 1203000    84.491068   -9847.5207   -9525.4022   -9847.5207            0    8200.9774    24.714677    24.669178    22.751313    13871.265    7261.7827    8225.4233    9115.7262    42.083491     47.92861   -20.120457   -7866.3595 
 1204000    87.350261    -9834.873    -9501.854    -9834.873            0    8635.4549    24.591384    24.758459    22.759305    13856.884     8797.759    8476.9741    8631.6315    75.501513    -352.2941   -42.752445   -7756.7284 
 1205000    83.860383    -9843.594     -9523.88    -9843.594            0    7565.0268    24.692972    24.727572    22.742623    13886.583    7780.1215    7326.5439     7588.415   -265.57997   -592.67941    245.68732   -7991.7989 
 1206000    81.095313   -9845.9643    -9536.792   -9845.9643            0     8587.506    24.622134    24.725974    22.764577    13859.217    8836.4683    8605.4585    8320.5911    89.644482   -311.69608   -228.60619   -7801.0642 
 1207000    85.677725   -9837.0211   -9510.3785   -9837.0211            0    7605.6273    24.690783    24.702835    22.775827    13891.714     7532.152    7769.7521    7514.9778   -221.79463    396.47204   -83.119239   -7969.5059 
 1208000    85.334256   -9834.1177   -9508.7846   -9834.1177            0    8599.8941    24.693894    24.703763    22.701341    13848.547     7592.747    8566.0592    9640.8762   -306.77104    326.68102    141.97264    -7771.891 
 1209000    84.431423   -9827.1613   -9505.2702   -9827.1613            0    7022.3189    24.622064    24.813398    22.793594    13925.908    7813.2374    6088.8923     7164.827   -142.11712   -223.57467   -442.46184   -8079.0718 
 1210000    87.855841   -9841.9983   -9507.0518   -9841.9983            0    8386.4798    24.739027    24.680534    22.721614     13873.19    7599.8088    8313.6441    9245.9866   -91.622997  -0.44572571   -112.88879   -7810.2468 
 1211000    86.261699   -9831.3164   -9502.4475   -9831.3164            0    7924.8564    24.673009    24.820513    22.670169    13883.137    7906.4478    7930.2608    7937.8605   -342.46315   -110.41517   -183.63309   -7897.8913 
 1212000    83.975392   -9837.4094   -9517.2569   -9837.4094            0    7656.2493    24.751479    24.732825    22.693374    13892.294    7273.4293    8015.5892    7679.7295   -21.530143    305.57506    78.480472   -7966.0637 
 1213000    84.832264   -9842.2649   -9518.8456   -9842.2649            0    8016.5578    24.691902    24.695665    22.751108    13873.238    7983.5024    8317.8253    7748.3459   -216.92901     145.4212   -309.86363     -7896.88 
 1214000    87.022849   -9841.5864   -9509.8156   -9841.5864            0    7776.3397    24.636369    24.746835    22.785348    13891.592    8318.7849    7251.9504    7758.2838    157.09353   -161.15812   -140.59963   -7934.3709 
 1215000    83.729053    -9833.877   -9514.6636    -9833.877            0    8299.0267    24.650198    24.682568    22.794285    13868.731    8488.5752    7943.0171    8465.4877    281.51147   -112.17174    36.133922   -7836.0924 
 1216000    84.129844   -9843.5967   -9522.8553   -9843.5967            0    8182.4502    24.659523    24.672955    22.802179    13873.377    7956.6301    9004.3004      7586.42   -435.73933   -783.30905   -285.61542   -7867.3086 
 1217000    86.531571   -9835.1064   -9505.2086   -9835.1064            0    8335.2328    24.703067    24.714359    22.724587    13873.825     7570.634    8679.6395    8755.4251   -481.84329   -575.73799    361.08499   -7818.6951 
 1218000    84.348983   -9828.4329   -9506.8561   -9828.4329            0    8558.5123    24.663918    24.735038    22.727889    13865.444    9320.7935    7387.8934    8966.8499    631.14657    11.377871    310.38239   -7776.2113 
 1219000    86.707928    -9859.521   -9528.9508    -9859.521            0    7274.6302    24.722884    24.765303    22.701441    13899.405    7868.5422    6514.5262    7440.8222   -202.64598    103.77463   -176.68565   -8054.3209 
 1220000     84.63116   -9830.5321   -9507.8795   -9830.5321            0    8815.1652    24.672303    24.659228    22.750369    13841.323    8740.5333    9481.4234    8223.5388    128.43039    273.33427   -238.61357    -7728.437 
 1221000    84.925368   -9839.1707   -9515.3965   -9839.1707            0    8010.1162     24.66716    24.699295    22.807975     13896.02    8281.3814    8005.6338    7743.3335    11.612312   -560.20631   -422.51662   -7892.0727 
 1222000    83.542965   -9833.0213   -9514.5174   -9833.0213            0    8902.9778    24.627842    24.663821    22.765407    13828.088    8677.1233      9406.93      8624.88   -162.97218    436.24856    1293.3406   -7719.0674 
 1223000    82.922684   -9820.8514   -9504.7123   -9820.8514            0    9443.5616    24.659631    24.690722    22.688296    13814.088    9945.8329    9512.5169     8872.335   -124.64061   -639.90328    253.13486   -7602.1717 
 1224000    87.701456   -9819.5615   -9485.2036   -9819.5615            0    9029.0874     24.68147    24.751624    22.659996    13843.138    8931.1866    8468.9127    9687.1628   -136.34657   -85.314398    532.87023   -7662.3394 
 1225000    83.993741   -9836.6935    -9516.471   -9836.6935            0    8370.3796    24.667617    24.692393    22.772769    13870.951    8226.5817    8175.7605    8708.7965   -923.40752    -442.5126   -47.047738   -7823.1969 
 1226000    83.680714   -9835.3108   -9516.2818   -9835.3108            0    7495.3229    24.682404    24.649675    22.835846    13893.631    7515.8423    7965.3211    7004.8052   -7.2081078   -84.782897    718.21418   -7997.5468 
 1227000    85.452517   -9827.9472   -9502.1632   -9827.9472            0     7982.044    24.645446    24.750109    22.733976    13867.213     8205.968    8082.0702    7658.0937   -633.20107   -82.999486    317.56048    -7887.882 
 1228000    84.923406   -9826.0544   -9502.2877   -9826.0544            0    7856.2548    24.749612    24.703999    22.713471    13887.343    7649.3934    7910.0199    8009.3513   -144.32118   -223.97779    -106.6918   -7911.1395 
 1229000    83.827384   -9843.4432    -9523.855   -9843.4432            0    7344.0079     24.63166    24.783335    22.794396    13914.946    8219.0621    6709.2003    7103.7613   -227.23529   -566.63195    551.88687   -8033.4972 
 1230000    84.920214   -9832.7621   -9509.0075   -9832.7621            0    8074.7943    24.699193    24.647298    22.799354    13879.525     7671.644     8632.644    7920.0949    -183.8836   -360.59752   -768.81887   -7874.5187 
 1231000    89.686734   -9838.6625   -9496.7358   -9838.6625            0    8695.1767    24.653588    24.718897    22.726391    13849.678     8616.099    8353.0177    9116.4133    348.66273   -770.33524   -290.28729   -7740.4549 
 1232000    86.235143   -9836.6245   -9507.8568   -9836.6245            0    7590.0502    24.725925    24.714282    22.732158    13891.246    7084.6942    7828.9405    7856.5158   -395.52662    29.916032     91.74938   -7970.1917 
 1233000    86.792867    -9829.803    -9498.909    -9829.803            0    8600.4539    24.717455    24.681542    22.731185    13867.498    7590.7614    9114.1073    9096.4931    144.24374   -151.66782    372.63155   -7759.5254 
 1234000    86.199857    -9835.268   -9506.6348    -9835.268            0    7273.8325    24.703476     24.75805    22.745011    13911.074    7747.2642    6901.5554    7172.6778    70.190951   -116.71407    424.46217   -8030.9288 
 1235000    83.998464   -9845.0915    -9524.851   -9845.0915            0    7728.9647    24.663423    24.739238     22.76037    13887.338    7975.4102    7913.1587    7298.3253    340.32727   -806.44671    251.34817   -7959.4839 
 1236000     88.90122   -9847.1868   -9508.2548   -9847.1868            0    7438.1772    24.690123    24.696396    22.801552    13903.407    7520.2658    7264.1451    7530.1209    360.12666   -256.58264    454.05626   -8000.0384 
 1237000    84.583059   -9836.4342    -9513.965   -9836.4342            0    8996.9552    24.620469    24.690275    22.763326     13837.51    9997.0722    8371.7236    8622.0699    239.14707   -884.33121    316.53089   -7698.3264 
 1238000      88.1289   -9823.8977   -9487.9101   -9823.8977            0    8355.4681    24.662712    24.697609    22.773874    13871.795    8716.9249    7992.0794       8357.4    32.178807   -274.40183    168.09942   -7797.5496 
 1239000    85.766677   -9834.8131   -9507.8314   -9834.8131            0    8006.1395    24.711557    24.786079    22.658025    13878.099    7781.2322     8078.306    8158.8802   -610.19746    -299.4673    86.440657    -7887.406 
 1240000    87.545519   -9834.5546   -9500.7911   -9834.5546            0    7746.0891    24.737417    24.732831    22.694454    13885.065    7438.1551    7899.5558    7900.5564   -177.05497   -345.15227   -233.40155   -7932.2125 
 1241000    83.170173   -9824.8059   -9507.7233   -9824.8059            0    7812.7684    24.643091     24.75049     22.77226    13889.452    8448.9492    7234.0937    7755.2622    95.284643   -76.768403   -257.23354   -7925.1423 
 1242000    87.055438   -9829.9783   -9498.0832   -9829.9783            0    8249.0863     24.68758    24.644775    22.786067    13863.496    8370.2034     8473.353    7903.7023   -215.62745   -59.230572   -75.943296   -7830.2429 
 1243000    83.825519   -9835.0415   -9515.4604   -9835.0415            0    7671.0016    24.596209    24.755762    22.829637    13900.918    8140.9365    7839.3502    7032.7179    247.48317   -82.323716     267.9299   -7960.3134 
 1244000     81.58069   -9831.8292   -9520.8064   -9831.8292            0    8227.9896     24.72868    24.676071    22.732882    13871.756     7527.681     8931.192    8225.0959   -705.11422   -480.16933   -109.01557   -7856.2403 
 1245000    86.585247   -9839.5534   -9509.4509   -9839.5534            0    8060.8004    24.693405     24.71722     22.72577    13870.727    7770.7657     8391.744    8019.8915   -512.10344    476.44236   -150.34026    -7878.829 
 1246000    82.444124    -9832.511   -9518.1964    -9832.511            0    8049.3719    24.664643    24.756999    22.712721    13868.899    8498.6771    7964.2411    7685.1975   -647.49403   -74.112194    62.257065   -7890.1009 
 1247000    88.662426    -9834.947   -9496.9254    -9834.947            0     7790.125    24.675576    24.758441    22.743302    13894.538     7846.103    7052.4252    8471.8466   -270.87381    307.92889   -200.39208   -7918.3533 
 1248000    82.508005   -9836.0061    -9521.448   -9836.0061            0    8838.9271    24.728851     24.64344    22.710549    13839.899    8127.9509    9639.2358    8749.5946   -149.03537   -174.33506    132.51278   -7737.3925 
 1249000    80.280142   -9838.5245   -9532.4599   -9838.5245            0    8184.5263    24.704056    24.727269    22.707707    13871.317     7642.208    8224.7189     8686.652    501.70128    220.97901    -139.7588    -7876.739 
 1250000    88.326238   -9839.9928   -9503.2529   -9839.9928            0    8268.8072    24.677584    24.680337    22.752446    13857.402    8477.0905    8443.9002     7885.431    -317.3805   -355.23212    518.72795   -7832.1601 
Loop time of 535.281 on 64 procs for 250000 steps with 1920 atoms

Performance: 80.705 ns/day, 0.297 hours/ns, 467.045 timesteps/s
194.3% CPU use with 32 MPI tasks x 2 OpenMP threads

MPI task timing breakdown:
Section |  min time  |  avg time  |  max time  |%varavg| %total
---------------------------------------------------------------
Pair    | 70.663     | 73.429     | 76.109     |  13.4 | 13.72
Bond    | 0.77651    | 1.0076     | 1.3053     |  10.0 |  0.19
Kspace  | 248.02     | 251.62     | 255.91     |  15.2 | 47.01
Neigh   | 0.15004    | 0.15892    | 0.16904    |   1.4 |  0.03
Comm    | 82.011     | 86.222     | 90.463     |  27.0 | 16.11
Output  | 0.65906    | 0.65945    | 0.66107    |   0.0 |  0.12
Modify  | 93.676     | 98.468     | 101.98     |  26.2 | 18.40
Other   |            | 23.71      |            |       |  4.43

Nlocal:        60.0000 ave          62 max          57 min
Histogram: 2 0 3 0 4 0 11 0 8 4
Nghost:        3560.88 ave        3602 max        3527 min
Histogram: 3 3 3 5 5 2 5 2 1 3
Neighs:        21947.9 ave       22808 max       20904 min
Histogram: 2 1 2 4 4 3 7 5 1 3

Total # of neighbors = 702332
Ave neighs/atom = 365.79792
Ave special neighs/atom = 2.0000000
Neighbor list builds = 253
Dangerous builds = 0

unfix		3
unfix		2
unfix		1

write_data	data.final.${pid}
write_data	data.final.1
System init for write_data ...
PPPM initialization ...
  extracting TIP4P info from pair style
  using 12-bit tables for long-range coulomb (../kspace.cpp:340)
  G vector (1/distance) = 0.37529418
  grid = 30 30 30
  stencil order = 5
  estimated absolute RMS force accuracy = 0.0031735644
  estimated relative force accuracy = 9.557095e-06
  using double precision FFTW3
  3d grid and FFT values/proc = 5400 960
Last active /omp style is kspace_style pppm/tip4p/omp
WARNING: Not all mixed pair coeffs generated from mixing. Use write_data with 'pair ij' option to store all pair coeffs. (../write_data.cpp:312)

write_restart   restart.lmp.${pid}
write_restart   restart.lmp.1
System init for write_restart ...
PPPM initialization ...
  extracting TIP4P info from pair style
  using 12-bit tables for long-range coulomb (../kspace.cpp:340)
  G vector (1/distance) = 0.37529418
  grid = 30 30 30
  stencil order = 5
  estimated absolute RMS force accuracy = 0.0031735644
  estimated relative force accuracy = 9.557095e-06
  using double precision FFTW3
  3d grid and FFT values/proc = 5400 960
Last active /omp style is kspace_style pppm/tip4p/omp
Total wall time: 0:08:55
