LAMMPS data file via write_data, version 30 Jul 2021, timestep = 500000

2268 atoms
2 atom types
1512 bonds
1 bond types
756 angles
1 angle types

-0.34407494117244397 47.00407294117852 xlo xhi
-0.044547285807567505 20.044548285806393 ylo yhi
-0.11803252934470443 20.818030529343613 zlo zhi

Masses

1 1.008
2 15.999

Pair Coeffs # lj/cut/tip4p/long/omp

1 0 0
2 0.21084 3.1668

Bond Coeffs # harmonic/omp

1 450 0.9572

Angle Coeffs # harmonic/omp

1 55 104.52

Atoms # full

775 259 2 -1.1794 0.37246107564004705 5.864833044232396 8.754285854844488 0 0 0
776 259 1 0.5897 0.7216859626968348 5.43303410715015 9.533963579954158 0 0 0
1539 513 1 0.5897 1.530183126793652 5.5273189410863495 0.3290107345645871 0 0 1
4 2 2 -1.1794 4.044599852307916 1.4786464102564278 3.0310192189414344 0 0 0
23 8 1 0.5897 0.9044922468729617 1.1646242410570247 4.500565486306265 0 0 0
1010 337 1 0.5897 3.1476561424718428 9.280012062498802 7.286460942237173 0 0 0
788 263 1 0.5897 -0.12117881810303965 2.254524684880632 8.614670946531616 0 0 0
10 4 2 -1.1794 1.0101394961934427 4.122506527452601 3.792674784315247 0 0 0
11 4 1 0.5897 0.6682154748426437 4.8821126207773045 3.321115221952045 0 0 0
12 4 1 0.5897 1.9565077380310587 4.263434695626608 3.8206352376284083 0 0 0
13 5 2 -1.1794 4.276968939242348 6.022390681949393 1.4637231968549242 0 0 0
14 5 1 0.5897 4.012383369249296 5.4233867054871014 2.1619271741404824 0 0 0
15 5 1 0.5897 3.6423655147267238 5.870041895577828 0.7634641434011468 0 0 0
16 6 2 -1.1794 3.6977748673128223 4.049960988470979 3.3333539894755493 0 0 0
17 6 1 0.5897 4.39144779361866 4.082528657690426 3.992176044197037 0 0 0
18 6 1 0.5897 3.726135986374153 3.1534436697885675 2.999098180961492 0 0 0
1281 427 1 0.5897 0.5739989815842418 0.23802123452388352 8.950752698745122 0 1 0
9 3 1 0.5897 5.337813560660284 4.07654259258056 6.07391149935562 0 0 0
1009 337 2 -1.1794 2.2762550862233972 9.507798378693828 6.962365812477037 0 0 0
288 96 1 0.5897 5.534298646884502 9.102226332792428 1.2887986484478586 0 0 0
1041 347 1 0.5897 0.8836085056097078 9.300870642401206 9.515730212477479 0 0 0
25 9 2 -1.1794 2.4404602475256882 5.535457358757827 6.5810731361496035 0 0 0
26 9 1 0.5897 1.5755333986054538 5.588428388591746 6.987723933822618 0 0 0
27 9 1 0.5897 2.498967252311496 4.636417713059571 6.257685844119484 0 0 0
31 11 2 -1.1794 0.8936071272074986 2.2960772579121715 1.3993850187989514 0 0 0
762 254 1 0.5897 4.147296994142088 0.6824634228948052 9.73639612746383 0 0 0
32 11 1 0.5897 0.8842217679222832 2.717909620191744 2.258620336639475 0 0 0
1011 337 1 0.5897 1.6755306891891393 9.141913970172785 7.611633580759625 0 0 0
34 12 2 -1.1794 5.526001025289765 2.4846843230235978 0.06739788463277549 0 0 0
1042 348 2 -1.1794 5.363833854147602 9.1370026970928 7.554743659409869 0 0 0
789 263 1 0.5897 1.3791011529893475 2.279398631746492 8.413423601145325 0 0 0
256 86 2 -1.1794 3.836481334061882 8.048474970635535 3.384955303211152 0 0 0
257 86 1 0.5897 3.9407582728382096 7.6702068361855975 2.511824989903161 0 0 0
258 86 1 0.5897 2.9739981717959307 7.750552808104825 3.674142422909109 0 0 0
253 85 2 -1.1794 2.245197204674606 9.699821352841974 0.11294255838789119 0 0 0
274 92 2 -1.1794 1.588749799919204 7.605917678169549 4.749048401703499 0 0 0
275 92 1 0.5897 2.0992544251608387 6.906526776848052 5.157108553934093 0 0 0
276 92 1 0.5897 1.6678550958783482 8.34442133845475 5.352908526918706 0 0 0
524 175 1 0.5897 0.587615799073991 0.4176996999196884 1.6430396785052688 0 1 0
19 7 2 -1.1794 0.43230142442336994 5.963854956545698 1.7406236173514418 0 0 0
29 10 1 0.5897 5.043856224773835 0.6543621013961789 4.463938317124854 0 0 0
285 95 1 0.5897 1.1275246552366693 9.065782626345946 1.5309441952971092 0 0 0
20 7 1 0.5897 0.4797224910021469 6.903160824378001 1.9187385562073889 0 0 0
283 95 2 -1.1794 0.3095383414615349 8.840756852341977 1.9742641137815253 0 0 0
5 2 1 0.5897 3.2433899629120897 1.3103471169774454 3.5270175424968864 0 0 0
757 253 2 -1.1794 2.4946670243913163 2.5290513617461157 6.961841168415312 0 0 0
758 253 1 0.5897 2.330486476989922 1.9185684380224686 6.243053388447127 0 0 0
759 253 1 0.5897 3.4446339131767623 2.512796831463748 7.078266067404098 0 0 0
791 264 1 0.5897 5.443585055885687 1.6876811085364325 6.67670715819371 0 0 0
270 90 1 0.5897 3.744323723398331 9.998600051761306 3.4591915058264306 0 0 0
254 85 1 0.5897 3.1360643508831383 9.547367170738179 0.4281849812999238 0 0 0
6 2 1 0.5897 3.992564522630171 0.8846231164636197 2.2821989103717075 0 0 0
769 257 2 -1.1794 4.551956555935058 5.608735379049605 8.528304617580396 0 0 0
770 257 1 0.5897 4.311739012234253 6.3426064207040325 9.094003779117283 0 0 0
771 257 1 0.5897 3.8757900706288106 5.596548729769803 7.850850338887438 0 0 0
33 11 1 0.5897 0.05023137693210711 2.526509615166175 1.0096589071168747 0 0 0
22 8 2 -1.1794 1.8345208774373334 0.9514580842076944 4.577136565692754 0 0 0
1039 347 2 -1.1794 0.6997847604303025 8.616852527186575 8.871816274492463 0 0 0
777 259 1 0.5897 0.655288638781516 6.775535469991823 8.837331100983283 0 0 0
787 263 2 -1.1794 0.7072174449088133 2.1529124181586026 9.083398953455543 0 0 0
286 96 2 -1.1794 4.882961116513808 9.2236822833847 0.5979258469898276 0 0 0
3 1 1 0.5897 2.1785871315473258 2.616707553214805 -0.0039821565048809016 0 0 0
790 264 2 -1.1794 5.278466609868503 2.438782459464367 7.246681064923565 0 0 0
773 258 1 0.5897 4.157992306083753 4.021218413590522 9.820043340180145 0 0 0
282 94 1 0.5897 5.10998092860253 7.739645199933223 4.7415052179407216 0 0 0
8 3 1 0.5897 5.572216056538882 5.487597014752366 5.577947037684919 0 0 0
28 10 2 -1.1794 5.503898706753536 0.28766164841544617 5.219049721070546 0 0 0
498 166 1 0.5897 -0.2758836832234263 7.482121652896643 5.057414539052367 1 0 0
1040 347 1 0.5897 -0.19605567284977318 8.792659649775487 8.584025798339463 0 0 0
1012 338 2 -1.1794 3.683837944150075 7.82922201124315 10.083223519792071 0 0 0
24 8 1 0.5897 1.854699431172517 0.14928196420572235 5.099047023539749 0 0 0
7 3 2 -1.1794 5.509838434900543 4.5805608261360184 5.278498705531641 0 0 0
287 96 1 0.5897 4.984879650417393 8.456622786323955 0.03443672532161288 0 0 0
1013 338 1 0.5897 2.7687907714364717 7.657128360278941 10.305330891728161 0 0 0
1026 342 1 0.5897 3.673031703814903 9.754397712274947 10.276612283117629 0 0 0
1002 334 1 0.5897 -0.31260713285502817 0.6875074032126356 12.268510946978267 1 0 0
1538 513 1 0.5897 2.3506386013624954 4.563777871961824 20.434130246831025 0 0 0
767 256 1 0.5897 0.8467565180968817 3.27556419116163 10.56189112851472 0 0 0
1543 515 2 -1.1794 0.5728433452587994 2.2335945958918186 15.859157468678779 0 0 0
778 260 2 -1.1794 1.5124441698530535 1.0410387735632172 12.18718981392207 0 0 0
1036 346 2 -1.1794 5.190157004133014 7.635817098961619 12.517656637747214 0 0 0
768 256 1 0.5897 2.0451759466214945 4.136205642797805 10.901098048585983 0 0 0
1800 600 1 0.5897 3.6128960605557907 9.064837871032106 14.349594932827406 0 0 0
765 255 1 0.5897 5.5153208881001685 4.317050206277501 13.151861322799698 0 0 0
779 260 1 0.5897 1.8420102547133959 1.7005089583045967 12.797745471455517 0 0 0
2036 679 1 0.5897 0.5760604704111639 0.5176820109294261 15.912374112068607 0 1 0
781 261 2 -1.1794 2.2287074604050634 5.666594327262586 13.920961324186095 0 0 0
782 261 1 0.5897 1.4532863025228775 5.852695082938155 14.450457223643863 0 0 0
783 261 1 0.5897 2.2253458007689506 4.715087338721535 13.816599616388672 0 0 0
1014 338 1 0.5897 4.167703583945401 7.623648810644719 10.883173607270324 0 0 0
784 262 2 -1.1794 5.5385095166747185 0.6354807047350415 12.806744590681364 0 0 0
1758 586 1 0.5897 -0.008858404719078228 1.1539714636516236 18.81500636584215 1 0 0
1792 598 2 -1.1794 5.194550600305186 7.467581137515105 19.564374785552317 0 0 0
2010 670 1 0.5897 -0.15177155052403069 7.544719303360296 18.71061427616995 1 0 0
1030 344 2 -1.1794 1.600926123193407 7.583039566340684 11.867084899294593 0 0 0
1031 344 1 0.5897 0.6712339414213577 7.6164896426739865 12.092500806161881 0 0 0
1032 344 1 0.5897 1.9232318422114236 6.789778037565543 12.29502575867819 0 0 0
774 258 1 0.5897 4.343877611481496 4.216159789381268 11.309866999110376 0 0 0
1513 505 2 -1.1794 2.4440109756663664 2.6462045502850526 14.110196772022727 0 0 0
1514 505 1 0.5897 1.9935857406180304 2.5884723329221924 14.952868513105477 0 0 0
1515 505 1 0.5897 3.3471164591776827 2.869456761828832 14.335627979564604 0 0 0
1516 506 2 -1.1794 4.051570421556521 0.9069069016916507 16.949007163699093 0 0 0
1517 506 1 0.5897 3.2351045591404093 0.7948041169541735 17.43592563463978 0 0 0
1518 506 1 0.5897 4.731872903355697 0.9250100506682571 17.622173881384377 0 0 0
1534 512 2 -1.1794 1.90689237032545 0.9231907843780166 18.58453967898607 0 0 0
766 256 2 -1.1794 1.093444022978502 4.093328377788379 10.993962885314122 0 0 0
1522 508 2 -1.1794 1.0305279236975977 4.45594572587728 17.285145784901218 0 0 0
1788 596 1 0.5897 1.9291010141617924 6.854109242776479 19.4415182279798 0 0 0
1524 508 1 0.5897 0.767116024265736 5.242561274528862 16.80751493800213 0 0 0
1525 509 2 -1.1794 4.23768887110644 5.931318514971281 15.706691554963612 0 0 0
1526 509 1 0.5897 4.175887625342155 5.057534681741003 16.092647456179478 0 0 0
1527 509 1 0.5897 3.4908671639150586 5.983590838743598 15.110192060503703 0 0 0
1528 510 2 -1.1794 3.86732481369679 3.6718517464962055 17.207521305906425 0 0 0
1529 510 1 0.5897 2.973961720745637 3.8988959781011614 17.46562060965954 0 0 0
1530 510 1 0.5897 3.8428952194958006 2.725570080479192 17.06530842039077 0 0 0
1765 589 2 -1.1794 1.9464750013555032 9.358061075819794 13.797269487791873 0 0 0
1 1 2 -1.1794 2.8221348979549052 2.928969606650612 20.295976248481416 0 0 -1
1523 508 1 0.5897 0.45163906225375205 4.432706593031339 18.04715012640353 0 0 0
1535 512 1 0.5897 2.260722293576107 1.6001812956359578 19.16141030910463 0 0 0
1546 516 2 -1.1794 5.338789522778495 3.0122168215527263 14.319885746752076 0 0 0
1795 599 2 -1.1794 0.5640230034540199 9.147770871552632 16.273719605979068 0 0 0
780 260 1 0.5897 2.1585711911169185 1.0234273184694151 11.481142056847949 0 0 0
1548 516 1 0.5897 5.307450450184768 2.1824317239131297 13.843696397845978 0 0 0
1545 515 1 0.5897 0.6410183693592171 3.0401457075958 16.370148551640995 0 0 0
1794 598 1 0.5897 5.122911672865374 6.516864343838925 19.64966277724372 0 0 0
1787 596 1 0.5897 2.334036883765031 7.894430379651349 18.41886984825772 0 0 0
1532 511 1 0.5897 0.3290462407565897 7.412866605258293 16.010485788445536 0 0 0
1798 600 2 -1.1794 4.520084594090307 9.136582846466782 14.646451514911329 0 0 0
1766 589 1 0.5897 1.842180763979286 8.754138384165739 13.061943843016493 0 0 0
1768 590 2 -1.1794 3.6211668865179383 8.003012045549871 17.33942919641543 0 0 0
1769 590 1 0.5897 4.282825825002889 7.906986392948011 18.02446872981941 0 0 0
1770 590 1 0.5897 3.7757246604078105 7.263870054251919 16.751149821309035 0 0 0
1786 596 2 -1.1794 1.6876975646075572 7.71592784717476 19.10200602311125 0 0 0
1797 599 1 0.5897 1.1139121753137171 9.21202632391389 15.492823940023612 0 0 0
1519 507 2 -1.1794 5.397991517022204 4.798348064228502 19.40007857219119 0 0 0
1531 511 2 -1.1794 0.26826041950335644 6.4996050574674955 15.730252074145017 0 0 0
1521 507 1 0.5897 4.9540322383062705 4.436024637744817 18.633313937645994 0 0 0
255 85 1 0.5897 2.096904081128746 9.007692688447142 20.40459637287436 0 0 -1
785 262 1 0.5897 4.837878854528463 0.855781048129572 12.1928426861348 0 0 0
1537 513 2 -1.1794 2.208697979938315 5.497406701082227 20.59052393822371 0 0 0
1038 346 1 0.5897 5.015407585697584 8.197196215491802 13.273051599742963 0 0 0
764 255 1 0.5897 5.453235996244724 5.797661483471513 12.84214194304852 0 0 0
772 258 2 -1.1794 3.849788756529721 3.7045818379166557 10.669199564540838 0 0 0
763 255 2 -1.1794 5.445580362039796 4.9361046217611335 12.425080559205478 0 0 0
1544 515 1 0.5897 -0.14360030666759616 2.3978058836592373 15.245947450327664 0 0 0
1796 599 1 0.5897 -0.32817413961684155 9.271542820703718 15.949791756322805 0 0 0
1782 594 1 0.5897 3.701450546932623 9.94268150719548 16.913058687254605 0 0 0
1799 600 1 0.5897 4.916554095143533 9.775605001608254 14.054209648137935 0 0 0
1536 512 1 0.5897 1.8657607898946291 0.1389772257522032 19.131901230184276 0 0 0
761 254 1 0.5897 3.929353427490754 1.9499409573153192 10.535161311792278 0 0 0
760 254 2 -1.1794 3.742100547089719 1.0112239975107538 10.538918185367214 0 0 0
1520 507 1 0.5897 5.399879775129373 4.083326479363045 20.036501077057366 0 0 0
2 1 1 0.5897 3.6693974641407427 2.7423296703013644 20.70042582363699 0 0 -1
537 179 1 0.5897 0.1374554025817668 14.732662749215242 2.2141501554613474 0 0 0
535 179 2 -1.1794 0.11052242502615339 15.671840350769783 2.031148368780671 0 0 0
262 88 2 -1.1794 0.9264210107517992 10.804148704218871 3.8357151118105723 0 0 0
1291 431 2 -1.1794 0.38215297331767295 15.126402054479014 8.795641159680043 0 0 0
265 89 2 -1.1794 4.71142587284558 12.41472366161112 1.7975382262457507 0 0 0
266 89 1 0.5897 3.9514775731971614 12.523317433575802 1.2257274137151482 0 0 0
513 171 1 0.5897 4.909188651174934 17.521909392371825 4.731367011791802 0 0 0
525 175 1 0.5897 0.6512234765251772 19.180098205409546 2.3695715475650805 0 0 0
269 90 1 0.5897 4.095546344837797 11.409540620978795 3.037429130607399 0 0 0
1295 432 1 0.5897 5.347567017440719 15.632963225147217 7.85349078559066 0 0 0
272 91 1 0.5897 0.9704624689148584 12.90342577836277 1.4694265663053778 0 0 0
273 91 1 0.5897 0.5371832571522661 12.291483520589795 2.784681632421312 0 0 0
277 93 2 -1.1794 1.8072618591646585 12.258113614096859 7.465762643581406 0 0 0
278 93 1 0.5897 1.7062265229763116 11.388193050288018 7.079360061418629 0 0 0
279 93 1 0.5897 1.9089924674387486 12.843664254599899 6.715369866868763 0 0 0
507 169 1 0.5897 1.8230770444117526 15.896083989582616 0.7933489913797006 0 0 0
518 173 1 0.5897 4.86659389107291 19.424703083043788 1.2570721123493123 0 0 0
515 172 1 0.5897 0.14350272927099972 17.931672333398925 4.34868801359828 0 0 0
2042 681 1 0.5897 1.5701211132752242 19.147043554565627 -0.003629035595914959 0 0 1
508 170 2 -1.1794 4.197665607673602 14.487351467280352 3.5390844218545547 0 0 0
509 170 1 0.5897 4.17747786930953 15.403060845909302 3.2609818734923657 0 0 0
510 170 1 0.5897 4.615836581179763 14.02508644333069 2.812623959943705 0 0 0
1025 342 1 0.5897 3.7989025357611457 11.258340406830435 10.157027377134824 0 0 0
514 172 2 -1.1794 0.9073264109858592 17.685480158890282 3.826920746395074 0 0 0
268 90 2 -1.1794 3.7116602088352284 10.907852834299344 3.756622963989793 0 0 0
516 172 1 0.5897 0.5769623847022617 17.030442369940623 3.2120425319116386 0 0 0
519 173 1 0.5897 3.5405044072954492 18.988448626235513 0.6712822176409695 0 0 0
1275 425 1 0.5897 3.617389961671948 19.155146379516545 7.738786698703976 0 0 0
263 88 1 0.5897 1.8802684279321764 10.80946449868952 3.9157298218100243 0 0 0
520 174 2 -1.1794 3.724187327846473 17.312330494014386 3.246085453596104 0 0 0
521 174 1 0.5897 2.7727182511202675 17.213411551544617 3.2117692055877325 0 0 0
522 174 1 0.5897 3.9173635517196983 17.998272358672434 2.606975189823442 0 0 0
517 173 2 -1.1794 3.9579760675068867 19.240230968164365 1.4950733901396103 0 0 0
750 250 1 0.5897 0.07806611268678859 14.123809176854412 5.0637860733856 1 0 0
526 176 2 -1.1794 1.9244588824459465 14.204375610186691 5.455704632141844 0 0 0
527 176 1 0.5897 2.6267679694784545 14.350940788744808 4.822010481285813 0 0 0
528 176 1 0.5897 2.0471739944251146 14.889595536511637 6.112750788717333 0 0 0
529 177 2 -1.1794 2.119347982208298 19.134558164352175 6.713028061294983 0 0 0
530 177 1 0.5897 2.1724978739000695 18.224178382825915 6.422070101566529 0 0 0
531 177 1 0.5897 1.4747756604937319 19.123132465952907 7.420624628984625 0 0 0
523 175 2 -1.1794 0.38886612618996164 19.576280317786406 1.5385950401177502 0 0 0
267 89 1 0.5897 5.463134499350549 12.60537247973466 1.2364075090731983 0 0 0
1790 597 1 0.5897 2.371856455919826 11.634846429132892 0.2620199857674919 0 0 1
271 91 2 -1.1794 0.28181773238578023 12.944504816848495 2.133032490942869 0 0 0
533 178 1 0.5897 5.513060365750025 13.85836767026814 4.831635773308281 0 0 0
261 87 1 0.5897 4.983436174123608 10.976542685473149 5.065885795895961 0 0 0
538 180 2 -1.1794 4.997426442636582 16.104796993575707 0.3708320351024438 0 0 0
1294 432 2 -1.1794 4.71664875309628 15.774655114806134 7.14768590712229 0 0 0
1021 341 2 -1.1794 4.309468109968964 12.307996641111552 8.823048447565348 0 0 0
1022 341 1 0.5897 4.122793258384485 13.12569965414 9.284347716495516 0 0 0
1023 341 1 0.5897 3.56362398888515 12.188461005516096 8.235077904209641 0 0 0
1280 427 1 0.5897 0.30418854639040804 18.907919938436805 9.403608695027618 0 0 0
534 178 1 0.5897 5.452461823017786 14.472848220218872 6.213970652937587 0 0 0
1028 343 1 0.5897 0.45247649735332496 12.369576840351709 8.556048102016334 0 0 0
1261 421 2 -1.1794 2.1581724692841986 16.510764953011076 7.181606190602102 0 0 0
1262 421 1 0.5897 1.628219176500634 16.14482883045909 7.889798440932605 0 0 0
1263 421 1 0.5897 3.0593254781826063 16.444978555715675 7.497611094736054 0 0 0
1027 343 2 -1.1794 -0.17139548131294455 12.537975402736347 9.262250155995554 0 0 0
1273 425 2 -1.1794 4.387676943091469 19.040526500708374 8.295384999104163 0 0 0
1274 425 1 0.5897 4.057517893482896 18.588774720297437 9.072058305683063 0 0 0
1292 431 1 0.5897 0.4104043393377368 15.635166157159695 9.605994162992152 0 0 0
1279 427 2 -1.1794 0.24238596815432456 19.484045945601412 8.641659771848639 0 0 0
1293 431 1 0.5897 0.06587538353885108 14.263931227465456 9.064685071316795 0 0 0
1789 597 2 -1.1794 2.398418567364255 12.565452478822545 0.48459093539088927 0 0 1
1296 432 1 0.5897 5.129325398022885 16.42972940538125 6.584780559347136 0 0 0
505 169 2 -1.1794 2.331476246204364 16.161829551129543 0.02705167130148642 0 0 0
30 10 1 0.5897 5.328320731431707 19.436867438719098 5.173809250927414 0 -1 0
506 169 1 0.5897 3.2383335466423357 16.174075812153966 0.333195573586522 0 0 0
264 88 1 0.5897 0.7461411431480403 10.153665156529325 3.1569891557494674 0 0 0
1278 426 1 0.5897 3.9930427755576456 16.54568547210598 10.313842707888872 0 0 0
1270 424 2 -1.1794 0.9396806873166927 17.36064567784355 10.57157129060108 0 0 0
2043 681 1 0.5897 2.2181802837320745 17.871600218018077 20.437196308301495 0 0 0
2048 683 1 0.5897 0.049281799014525285 15.567419203221856 15.428538141615553 0 0 0
2047 683 2 -1.1794 0.8704534467197635 15.434443379722106 15.902108692740716 0 0 0
2039 680 1 0.5897 1.7959788480890575 14.90164269106609 19.526620716220435 0 0 0
1033 345 2 -1.1794 2.0662424072881937 12.09172155402797 13.241137513954678 0 0 0
1034 345 1 0.5897 2.9590451874163683 12.3315926692969 13.489386212849219 0 0 0
1035 345 1 0.5897 1.563889817046846 12.163895402453257 14.052765245643057 0 0 0
2038 680 2 -1.1794 1.6257654829646273 14.100127697065519 19.03176363651218 0 0 0
1271 424 1 0.5897 0.6480454654876704 17.50460444814152 11.47187381590264 0 0 0
1773 591 1 0.5897 4.845145282874794 11.163366044925338 18.910635201704608 0 0 0
1272 424 1 0.5897 1.8918902578993935 17.450280363572432 10.610530759100637 0 0 0
1277 426 1 0.5897 4.53367987430888 17.61094989193765 11.243879470903966 0 0 0
2041 681 2 -1.1794 2.2008705524923493 18.817612867800676 20.292181575317606 0 0 0
1505 502 1 0.5897 0.033345494046894186 14.182115256444325 11.771661656895539 1 0 0
2037 679 1 0.5897 0.8900303075805898 19.480753067302654 14.950328230473263 0 0 0
1282 428 2 -1.1794 1.7988039083452358 14.631518914599505 12.097136618652536 0 0 0
1283 428 1 0.5897 2.092577908363942 15.283747521081356 12.733208530594197 0 0 0
1284 428 1 0.5897 1.9899746208585953 13.78975213296411 12.510854614336171 0 0 0
1285 429 2 -1.1794 1.8386554013555187 18.80038647087531 13.564694972846738 0 0 0
2050 684 2 -1.1794 5.434727802283427 16.06207796850495 14.066746819180372 0 0 0
1287 429 1 0.5897 2.6307000144943093 18.92354509339818 14.087930818948438 0 0 0
2035 679 2 -1.1794 0.43927184118998064 19.66963047293855 15.773402926428693 0 0 0
1785 595 1 0.5897 0.5655307277814401 13.66928859108468 15.891743384960877 0 0 0
1019 340 1 0.5897 0.6314315308376289 11.237970765737945 10.36411489575646 0 0 0
2051 684 1 0.5897 4.481381725302615 16.12597633852989 14.124230964021633 0 0 0
2046 682 1 0.5897 4.827029379221141 14.502236099658328 18.746644085581664 0 0 0
1286 429 1 0.5897 1.809466064536851 19.565179938335163 12.98977928634549 0 0 0
1016 339 1 0.5897 5.0325277022113175 10.718455290265526 11.894993440637693 0 0 0
2049 683 1 0.5897 0.935578201455832 16.189841292110653 16.48642244549844 0 0 0
1776 592 1 0.5897 1.1199070832279336 12.148501954457453 17.30602821742503 0 0 0
1777 593 2 -1.1794 4.065858495595215 12.636695329981386 15.109874829020194 0 0 0
1778 593 1 0.5897 3.7304802602159954 11.860373768865818 15.558346384035806 0 0 0
1780 594 2 -1.1794 4.039783148675251 10.743722208342442 17.313235635675035 0 0 0
2023 675 2 -1.1794 5.361417945993601 18.24973935623297 19.66535822609802 0 0 0
1988 663 1 0.5897 -0.24157845522956298 11.174832876162824 18.760775333852976 1 0 0
2024 675 1 0.5897 4.651920379911098 18.064634664515285 19.050023167165598 0 0 0
2044 682 2 -1.1794 5.53962556609295 14.239342783236392 19.329203767632194 0 0 0
1265 422 1 0.5897 4.487067493477417 14.298373969306692 11.096473610059125 0 0 0
2025 675 1 0.5897 5.323284816690395 17.532727410193903 20.29839277904773 0 0 0
1791 597 1 0.5897 2.129532092635146 13.011992890612161 20.61777598893383 0 0 0
1779 593 1 0.5897 5.003731102838304 12.638023164000487 15.301325848962101 0 0 0
2017 673 2 -1.1794 2.5967037914118323 16.18929132025595 14.103770180612912 0 0 0
2018 673 1 0.5897 2.240285251828128 17.042404203282924 13.8559121598142 0 0 0
2019 673 1 0.5897 1.994233046109812 15.862426117153499 14.771961525617268 0 0 0
2020 674 2 -1.1794 3.6338154847773803 14.615674933198266 17.273568715179714 0 0 0
2021 674 1 0.5897 2.7684778739745246 14.489372942603314 17.66280702425275 0 0 0
2022 674 1 0.5897 3.613567239833622 14.09625336621906 16.469763800392272 0 0 0
1783 595 2 -1.1794 0.3992340794203757 12.729908488105224 15.813143294395754 0 0 0
1774 592 2 -1.1794 1.4185106167437915 11.427640039213907 17.86053736664944 0 0 0
2026 676 2 -1.1794 0.8284120990379851 17.745432062251265 17.640596142057163 0 0 0
2027 676 1 0.5897 1.7666361539563673 17.710422647627936 17.82706024710417 0 0 0
2028 676 1 0.5897 0.7352649050582336 18.460936391344955 17.011571272124215 0 0 0
1781 594 1 0.5897 3.295890638649395 11.103241742227505 17.79660339862945 0 0 0
2040 680 1 0.5897 0.6960186401115847 13.92281204812573 19.174547859974147 0 0 0
1266 422 1 0.5897 3.027804964869277 14.597885178266152 10.826646703766755 0 0 0
2032 678 2 -1.1794 3.839877287317832 17.552767376245782 17.51115507131712 0 0 0
2033 678 1 0.5897 3.91294091409223 17.895989140041312 16.620548299135095 0 0 0
2034 678 1 0.5897 4.135135354982086 16.64474879152777 17.443384107385228 0 0 0
2029 677 2 -1.1794 3.926880625972034 18.929848324631227 15.15895685154834 0 0 0
1276 426 2 -1.1794 3.8030440171651554 17.419283842454107 10.655898054353605 0 0 0
540 180 1 0.5897 4.97924750156679 15.343263762068904 20.72721610198201 0 0 -1
1020 340 1 0.5897 1.7832654671928436 10.501582994191573 11.014502912569936 0 0 0
1767 589 1 0.5897 1.9599144319954522 10.226369876110118 13.394607060169724 0 0 0
2031 677 1 0.5897 3.5269567726362747 19.63709271528723 15.66506756259005 0 0 0
1775 592 1 0.5897 1.2812512801335665 10.643371282668284 17.329152564557113 0 0 0
1772 591 1 0.5897 5.0994375502910545 10.838864257636416 20.36739943304324 0 0 0
2045 682 1 0.5897 5.441174847320155 13.291172993012015 19.41609116383046 0 0 0
1024 342 2 -1.1794 3.589810478437657 10.56348534964562 10.78132700250164 0 0 0
1771 591 2 -1.1794 5.133750609499777 11.556173092197911 19.73448039961871 0 0 0
1018 340 2 -1.1794 0.8320141689841998 10.47800991655527 10.910476923421104 0 0 0
2030 677 1 0.5897 4.869036439898727 19.067625355207262 15.257021077636322 0 0 0
1264 422 2 -1.1794 3.8591212694319967 14.42420858328267 10.385035010852272 0 0 0
1575 525 1 0.5897 8.493003241241288 5.796976443618755 0.46038982999489986 0 0 1
792 264 1 0.5897 5.8925100865707325 2.328704448850366 7.972718663521519 0 0 0
305 102 1 0.5897 11.141127733733027 9.758614357701692 3.851904316663832 0 0 0
292 98 2 -1.1794 10.981274913469804 7.972985811325776 3.564148301718363 0 0 0
798 266 1 0.5897 10.184147942230238 2.2434600595835836 10.073792099592685 0 0 0
1076 359 1 0.5897 7.493378797463494 8.157572028773815 9.190192089606025 0 0 0
561 187 1 0.5897 7.106180473083365 0.02639592656661674 2.189027065074029 0 1 0
40 14 2 -1.1794 10.709373438706026 1.2749170173159197 3.503186924637069 0 0 0
1049 350 1 0.5897 10.521158091302693 7.34801829247755 9.82661228418973 0 0 0
42 14 1 0.5897 9.890838067631814 1.1046963251866548 3.969340916071033 0 0 0
46 16 2 -1.1794 7.886681334474167 4.353248951206706 3.5759609080476897 0 0 0
47 16 1 0.5897 7.322235391711773 4.368540010380469 4.348923944468687 0 0 0
48 16 1 0.5897 7.3923693388722755 4.828883287503435 2.9083378134491853 0 0 0
823 275 2 -1.1794 7.369963949727684 2.144906550309987 9.228758752695711 0 0 0
813 271 1 0.5897 7.730152074276111 5.87751076057547 9.541651658564735 0 0 0
52 18 2 -1.1794 10.722578718491802 4.041005483983711 3.346969654243684 0 0 0
53 18 1 0.5897 9.800888475584472 4.29923533441559 3.3391732328426698 0 0 0
554 185 1 0.5897 10.792033111841096 0.17660897757762378 2.0881039075082737 0 1 0
55 19 2 -1.1794 7.104365472993822 6.08121469637182 1.3830154288041843 0 0 0
320 107 1 0.5897 7.60217204319518 9.201190867302472 2.6651694090686884 0 0 0
57 19 1 0.5897 7.223344746961736 6.975198400786507 1.7038120365647655 0 0 0
797 266 1 0.5897 10.063302199667193 0.7719963493429582 9.738856400785586 0 0 0
1044 348 1 0.5897 5.977156003834 8.973089413523734 8.271167836320659 0 0 0
824 275 1 0.5897 7.190316053257465 1.2062899193047785 9.174054669153879 0 0 0
61 21 2 -1.1794 8.764145037263184 5.15565088971412 6.627960641947883 0 0 0
62 21 1 0.5897 8.092928717463494 5.449556232559627 7.243893776887453 0 0 0
63 21 1 0.5897 8.727449662134742 4.200102938129951 6.670963788913488 0 0 0
67 23 2 -1.1794 7.521700233236368 1.8652993796833448 1.970880011468748 0 0 0
68 23 1 0.5897 8.075075791043327 2.1766559210778955 1.2545488294706453 0 0 0
69 23 1 0.5897 7.690774692653784 2.476517504949314 2.6879059589993575 0 0 0
1047 349 1 0.5897 9.155995571228239 8.735807972704718 6.1239167948761555 0 0 0
811 271 2 -1.1794 7.352024842692352 6.307728641965112 8.774683239205165 0 0 0
35 12 1 0.5897 6.080627212664616 2.3271897211386148 0.8315258944123226 0 0 0
58 20 2 -1.1794 8.307952309438875 0.7455895166356912 4.857254202878807 0 0 0
812 271 1 0.5897 6.483894931305808 5.915064829858832 8.68290092853491 0 0 0
294 98 1 0.5897 10.080727976140233 7.812269747290265 3.8460124696507325 0 0 0
1075 359 2 -1.1794 7.629100853785468 9.100374067609087 9.095471608748756 0 0 0
310 104 2 -1.1794 8.483770232802916 7.465069095901093 4.879578946173957 0 0 0
311 104 1 0.5897 8.61631073439951 6.517434334918463 4.905817920795066 0 0 0
312 104 1 0.5897 7.544079755564434 7.579975808897957 5.0211242723523775 0 0 0
319 107 2 -1.1794 7.299649239066073 8.719449952846405 1.8952923166365565 0 0 0
51 17 1 0.5897 11.045083869378269 5.426650454250071 2.273451777063886 0 0 0
321 107 1 0.5897 7.9010754008821 8.979829956243533 1.1975926842426032 0 0 0
56 19 1 0.5897 6.191128040522838 6.048010240479385 1.0981366995254063 0 0 0
809 270 1 0.5897 10.640606444843042 4.82060223627985 9.46583502908647 0 0 0
59 20 1 0.5897 7.364808382325896 0.9078619870296117 4.837175365240988 0 0 0
793 265 2 -1.1794 9.083543492809568 2.2877138376444206 7.180770811740074 0 0 0
794 265 1 0.5897 9.943945807529127 1.9950988863041457 7.481351794297106 0 0 0
795 265 1 0.5897 8.844429670934144 1.664740424844658 6.494454838269895 0 0 0
1045 349 2 -1.1794 9.273986215881735 9.291713619453787 6.8942118405929955 0 0 0
1046 349 1 0.5897 10.17052784361954 9.117550535866414 7.180816507400469 0 0 0
1077 359 1 0.5897 8.289851143674152 9.179795040698439 8.407433747741965 0 0 0
825 275 1 0.5897 8.08850329860019 2.2880282387269695 8.612721517642813 0 0 0
807 269 1 0.5897 10.131794062516798 5.990635235667531 7.550376699845543 0 0 0
324 108 1 0.5897 10.64868825539179 9.241736360055182 0.1662441683148515 0 0 0
293 98 1 0.5897 11.053295257330486 7.522764201511528 2.7224662747505954 0 0 0
41 14 1 0.5897 11.3834230068754 0.862500921690994 4.043417619232101 0 0 0
54 18 1 0.5897 10.707157844334887 3.092489404506191 3.219110204155914 0 0 0
49 17 2 -1.1794 11.311897323127843 6.006680247711764 1.56023584450494 0 0 0
1574 525 1 0.5897 9.96978253890896 6.0940013426113495 0.30920003241895655 0 0 1
39 13 1 0.5897 10.0910832219218 2.7731973620869073 0.19707837255023608 0 0 0
280 94 2 -1.1794 5.838057637570239 7.5694700327106075 5.3391904616035335 0 0 0
805 269 2 -1.1794 10.598222788518092 6.351903944558063 8.304187645363672 0 0 0
808 270 2 -1.1794 10.580827955505933 4.138034294981608 10.13428406990775 0 0 0
37 13 2 -1.1794 9.159191485088499 2.8879833570437885 0.01090663948762377 0 0 0
281 94 1 0.5897 5.652588542958639 8.11372988737617 6.104493987046029 0 0 0
1043 348 1 0.5897 5.760964769290125 9.852212676040967 7.057707551618332 0 0 0
815 272 1 0.5897 8.662490997603484 1.544577675040496 11.488095965280387 0 0 0
1822 608 2 -1.1794 7.973690698968566 7.410374389446209 18.80746183609235 0 0 0
802 268 2 -1.1794 7.94654109925011 4.538909630178078 10.82473343143696 0 0 0
1554 518 1 0.5897 11.27568060864384 1.2631600452461742 17.743290145360874 0 0 0
786 262 1 0.5897 6.337759334419477 0.9430675521430054 12.379123048731019 0 0 0
1583 528 1 0.5897 10.879877346909929 3.2697798472131607 14.539418363154194 0 0 0
803 268 1 0.5897 7.361437948525469 4.829697613078361 11.524301334305473 0 0 0
1801 601 2 -1.1794 8.820876068370481 9.253345802895584 13.947360877528034 0 0 0
816 272 1 0.5897 8.363057494416218 0.6285399437304796 12.655696855022866 0 0 0
2067 689 1 0.5897 10.786000292979661 0.29676050842309026 15.654999204721609 0 1 0
1569 523 1 0.5897 5.966160885185288 6.194980625960736 15.737716837064596 0 0 0