LAMMPS data file via write_data, version 30 Jul 2021, timestep = 20250000

864 atoms
2 atom types
576 bonds
1 bond types
288 angles
1 angle types

0.6057127694850575 17.601859630494538 xlo xhi
1.8049809043638803 21.824196895629676 ylo yhi
0.738968163990906 21.47422763600096 zlo zhi

Masses

1 1.00794
2 15.9994

Pair Coeffs # lj/cut/tip4p/long/omp

1 0 0
2 0.21084 3.1668

Bond Coeffs # harmonic/omp

1 450 0.9572

Angle Coeffs # harmonic/omp

1 55 104.52

Atoms # full

75 1 1 0.5897 2.0973540630236363 2.84675432290204 4.840459211260955 1 4 4
73 1 2 -1.1794 2.415617231590822 2.1355380810732623 4.284297475125193 1 4 4
54 1 1 0.5897 3.0327499307459753 4.727327299618876 2.7205966682814733 -4 1 6
53 1 1 0.5897 2.515558638366061 3.307516903355208 2.815086526844272 -4 1 6
52 1 2 -1.1794 2.546846465641711 4.064419992970187 2.2298464654660135 -4 1 6
662 1 1 0.5897 4.598127797648196 4.870223866476623 4.289712038448444 0 -5 -2
393 1 1 0.5897 3.9872876037623524 3.9943739178183084 0.8288676274839275 4 2 1
315 1 1 0.5897 0.8855350543820769 4.428782398203362 2.6909324920557065 5 -1 -1
257 1 1 0.5897 3.090132973631172 6.613430013097786 4.596570337782604 -5 4 -1
661 1 2 -1.1794 4.342669201551357 5.620595613696334 3.7529934088671917 0 -5 -2
609 1 1 0.5897 1.208307123750673 4.889949689814285 5.8610988411488965 12 3 -1
711 1 1 0.5897 3.634479820040417 4.311960394379499 6.521288490046614 -4 5 2
771 1 1 0.5897 3.3981584274219228 6.174419274479637 10.198881329474231 3 1 1
710 1 1 0.5897 4.7253670127817395 3.263806293711185 6.460541384444383 -4 5 2
423 1 1 0.5897 1.8641959570623388 3.005462389333382 10.0071476662016 -6 4 5
404 1 1 0.5897 0.9593627159676781 6.068794685222463 8.713974674088671 1 -6 -2
608 1 1 0.5897 1.242588615564145 3.66554545216642 6.751001461396551 12 3 -1
405 1 1 0.5897 1.2117796148831048 4.6008612952126215 8.985572793380298 1 -6 -2
421 1 2 -1.1794 2.233527131945552 3.0703053540268996 9.12633864965924 -6 4 5
607 1 2 -1.1794 1.7791008091002394 4.17537524731914 6.143867940686334 12 3 -1
587 1 1 0.5897 4.800513974484323 4.497288281855406 8.792277928244975 -2 2 4
709 1 2 -1.1794 4.584239178760644 4.210632303190851 6.457341571322196 -4 5 2
24 1 1 0.5897 3.8679826872462573 2.080818406577947 9.260897747833335 -3 -2 2
422 1 1 0.5897 1.9235080518948904 2.2836056237269786 8.677591987120726 -6 4 5
769 1 2 -1.1794 3.029007059248908 6.638856465075172 10.950151902241146 3 1 1
358 1 2 -1.1794 4.427365172540277 4.056411288226849 11.906273334285764 1 -3 -4
273 1 1 0.5897 1.61307557230731 3.148301202995234 15.542832652699335 -3 0 1
333 1 1 0.5897 3.7443439419171822 2.35637137269792 14.956875272335893 1 3 0
271 1 2 -1.1794 2.4131033289186674 3.5887965200842595 15.255952391740784 -3 0 1
713 1 1 0.5897 2.0070394711485084 6.33157230722709 13.580850706299826 -7 -3 4
272 1 1 0.5897 2.7223765539947165 4.05468734943101 16.032918646688813 -3 0 1
714 1 1 0.5897 2.0154080062167004 4.873330926796495 13.98797036365205 -7 -3 4
712 1 2 -1.1794 1.7341042477778645 5.462157384887253 13.28758383104917 -7 -3 4
360 1 1 0.5897 3.610269719421902 3.557666065527753 11.903773520392265 1 -3 -4
770 1 1 0.5897 2.685397317637789 5.946621934456699 11.51508185954986 3 1 1
680 1 1 0.5897 1.311577343066135 2.50312721624308 12.38164666382318 -11 -7 -1
679 1 2 -1.1794 1.9468218326212647 2.480479021876458 11.665872146213795 -11 -7 -1
399 1 1 0.5897 4.840631082282016 5.411685661703231 12.992928535159708 4 6 -4
359 1 1 0.5897 4.315514771662294 4.70383151833903 11.210050013266002 1 -3 -4
357 1 1 0.5897 2.8374904191089523 5.32680911034424 18.14154270638972 -4 0 6
146 1 1 0.5897 2.2327300617924566 6.587921484948908 20.039783455221205 1 -2 -8
687 1 1 0.5897 0.8434372287626686 5.968446100559351 17.271471024716888 3 -6 -6
356 1 1 0.5897 1.765358057126694 4.364303738260412 18.60671665522152 -4 0 6
667 1 2 -1.1794 3.94773756326901 6.277699063070605 19.102181743025447 -5 3 3
669 1 1 0.5897 4.044354296846178 5.756138005176981 19.89906507523041 -5 3 3
392 1 1 0.5897 4.66743707486788 3.534809229635328 20.291937002534816 4 2 0
391 1 2 -1.1794 4.642633731635131 4.258381339429536 20.91821225702369 4 2 0
355 1 2 -1.1794 2.1363091017859386 4.760878702261094 17.818358732945434 -4 0 6
336 1 1 0.5897 1.3022995265340969 4.4425912683650886 20.945822278922975 10 -2 6
145 1 2 -1.1794 1.721825108769858 6.4539417730305395 20.838169202122252 1 -2 -8
85 1 2 -1.1794 4.580316312878483 2.0282943858178517 19.13307970684822 0 6 1
335 1 1 0.5897 1.3605735550158624 2.9966869041756965 20.500570929432918 10 -2 6
334 1 2 -1.1794 1.0205726332026352 3.854323804399975 20.245137478948124 10 -2 6
668 1 1 0.5897 4.837165214250763 6.355238222420516 18.756774295241726 -5 3 2
87 1 1 0.5897 3.6607880428124515 1.8559695453512113 18.93021784943179 0 6 1
775 1 2 -1.1794 1.2197948458646342 9.896370953656264 4.724821212629241 3 -2 2
776 1 1 0.5897 0.7319364267912154 10.219335494093045 3.967147889731521 3 -2 2
621 1 1 0.5897 2.7140615804938686 10.902598457136916 3.9694853235324956 4 -2 2
619 1 2 -1.1794 3.2604155777181396 11.511393476843065 3.472235251390928 4 -2 2
326 1 1 0.5897 2.104642963390414 9.187330291212561 1.7355360626064158 2 2 -4
777 1 1 0.5897 1.036963242413843 10.53210969905732 5.416767220646779 3 -2 2
620 1 1 0.5897 2.793496925839689 11.63241986349923 2.645356094942674 4 -2 2
545 1 1 0.5897 4.10830558354871 9.445266974441992 5.686649531780785 -3 2 3
327 1 1 0.5897 3.2208703965085994 8.165378549804672 1.7794268799526514 2 2 -4
325 1 2 -1.1794 2.4158111513724916 8.426774021210822 2.226567067500616 2 2 -4
256 1 2 -1.1794 2.497719616807482 7.239313005070148 5.013389357383457 -5 4 -1
258 1 1 0.5897 2.4927098979296396 7.993900398995732 4.424308447782078 -5 4 -1
651 1 1 0.5897 0.6081936660503047 7.592218608179215 3.0294479108889285 -1 -4 -2
367 1 2 -1.1794 4.7636364036572 7.7432031789059685 0.9940547872414216 5 2 -5
330 1 1 0.5897 4.506763941135656 10.201506732567628 2.9729793032639367 4 4 1
582 1 1 0.5897 3.7584173364681344 11.361438028863923 7.2656901181262 -3 -1 4
20 1 1 0.5897 0.9903923521204911 9.724009125117615 9.303137534731826 -5 -7 -1
440 1 1 0.5897 2.8183718319393725 10.5651205438873 8.877726846474461 3 -2 0
498 1 1 0.5897 3.0525080168744774 7.8390290877675195 8.065232992277158 5 8 -1
19 1 2 -1.1794 1.142407365418757 10.616430249568444 8.99187624773279 -5 -7 0
439 1 2 -1.1794 3.7722184166291344 10.597540066849666 8.95195390344021 3 -2 0
21 1 1 0.5897 1.3053648856493782 11.12355841470325 9.787274037287439 -5 -7 0
441 1 1 0.5897 4.05677897242478 9.699306268087767 8.78282283297026 3 -2 0
262 1 2 -1.1794 4.815531230626265 8.065629727879148 8.553036285097512 4 0 7
417 1 1 0.5897 1.3013060754509707 7.629159375913834 10.364662553062198 -4 1 0
497 1 1 0.5897 2.393790310291133 7.12721387360555 6.902573606822762 5 8 0
496 1 2 -1.1794 2.2174476216405696 7.468225018778373 7.779507570014538 5 8 0
240 1 1 0.5897 2.7527873427349348 8.139648007827361 15.133445518296325 -5 -5 1
125 1 1 0.5897 3.301340813349717 8.709784927677408 11.644227718834319 1 3 6
346 1 2 -1.1794 3.028249920673016 11.721655233514614 15.002184965330875 -3 4 -1
238 1 2 -1.1794 2.2022331862906155 7.946900351878925 14.374415865101271 -5 -5 1
744 1 1 0.5897 4.757429982183373 8.956197286407441 16.155476865893313 -6 -1 6
124 1 2 -1.1794 3.145298072832344 9.396104495882629 12.293140997332408 1 3 6
126 1 1 0.5897 2.7161474261929532 8.945472725925793 13.020578439368371 1 3 6
239 1 1 0.5897 1.4629915755967797 8.54975613661772 14.45483892013397 -5 -5 1
306 1 1 0.5897 2.4675072707467525 11.098453069158232 11.732988444458236 7 -1 -5
424 1 2 -1.1794 0.7240607941896126 10.052728740302161 15.306149952199734 10 -2 1
348 1 1 0.5897 2.3704299135325733 11.026942262330968 15.034383785673361 -3 4 -1
304 1 2 -1.1794 1.8830837513118204 11.792249555327531 11.427219114581707 7 -1 -5
9 1 1 0.5897 3.4051533644799674 11.083672900312287 21.26377783438128 1 -3 -2
506 1 1 0.5897 4.212392385487892 10.729637748791324 18.03528794737293 0 4 -4
762 1 1 0.5897 1.2049278199999836 7.944061509984682 18.331629008294925 3 -3 0
560 1 1 0.5897 4.42331085526621 8.558044790988236 18.71560872355589 3 2 1
559 1 2 -1.1794 4.065014896621705 9.239717949348767 19.284260267411923 3 2 1
8 1 1 0.5897 1.9558955230711979 11.446515801177801 21.018232803488125 1 -3 -2
561 1 1 0.5897 3.116140696275905 9.128516030805098 19.223747220562785 3 2 1
760 1 2 -1.1794 1.4265827626935916 8.732544018150168 18.827169396185653 3 -3 0
7 1 2 -1.1794 2.511024708252521 10.808872173010121 21.46726422247832 1 -3 -2
761 1 1 0.5897 0.8252054682928434 9.400313193340754 18.497283371811676 3 -3 0
743 1 1 0.5897 4.596661607047509 7.4675996000377625 16.380309079447652 -6 -1 6
507 1 1 0.5897 3.9654671564239883 11.397621180118037 16.699200782089996 0 4 -4
505 1 2 -1.1794 3.9402045936863677 11.55908137464373 17.64244390375915 0 4 -4
174 1 1 0.5897 4.780306270097027 10.659662266988228 20.145999336542452 1 0 -3
147 1 1 0.5897 1.9979087863790004 7.161150581149217 21.421294617334635 1 -2 -8
742 1 2 -1.1794 4.1037064694929075 8.287988107566438 16.36173767571548 -6 -1 6
297 1 1 0.5897 2.8455352673620764 15.406128490750564 4.708307988541504 4 5 1
237 1 1 0.5897 4.344285623051966 12.919184701818862 3.729892188378211 -2 -2 -4
230 1 1 0.5897 2.4127728364000465 13.793628565249772 1.1233071499946754 0 7 2
719 1 1 0.5897 1.0402708946328785 14.229914871590964 3.251532841627712 6 4 0
295 1 2 -1.1794 1.9264256244695552 15.141211668330916 4.670349180139645 4 5 1
236 1 1 0.5897 4.145632098765358 14.287492354910926 3.112997774940288 -2 -2 -4
229 1 2 -1.1794 3.2160350426206503 14.182279922241497 1.4698695188872315 0 7 2
487 1 2 -1.1794 4.321673900497357 16.777093988536187 4.1075124209184 0 -10 -1
235 1 2 -1.1794 4.678093341374412 13.816062706524326 3.753800112470718 -2 -2 -4
231 1 1 0.5897 3.0497086490105882 15.124960385307137 1.4611650160518717 0 7 2
296 1 1 0.5897 1.7663127270641235 14.709200423411877 5.509464163228363 4 5 1
96 1 1 0.5897 0.9461977110956243 16.783826386553088 4.501947800637868 -2 2 1
227 1 1 0.5897 1.6897319324992515 16.727833420514735 0.9621359885984898 5 0 2
383 1 1 0.5897 2.554412994422049 13.5157727919814 6.923791549576414 -8 -2 -1
384 1 1 0.5897 1.1557450602629427 12.963024819807936 6.749241001353273 -8 -2 -1
382 1 2 -1.1794 1.6335592888279942 13.776937478954844 6.909308387209916 -8 -2 -1
610 1 2 -1.1794 3.3311398088508706 15.817259293148547 8.264481413606527 -1 2 -2
89 1 1 0.5897 3.335011451746005 14.27977859290418 9.574427077560209 7 -2 2
612 1 1 0.5897 2.5193640626259937 16.15514960818051 7.8860158247491405 -1 2 -2
305 1 1 0.5897 2.465425486637532 12.436279319471023 11.02411769458656 7 -1 -5
611 1 1 0.5897 3.7749170090266335 15.38561759256187 7.534322443001528 -1 2 -2
90 1 1 0.5897 4.335946099330338 13.177433277674622 9.30004605603862 7 -2 2
88 1 2 -1.1794 3.724908940996564 13.497087434552826 9.964007234072575 7 -2 2
519 1 1 0.5897 0.607490141465746 13.774189210742632 8.507534395542631 1 0 -5
800 1 1 0.5897 0.6519746959157856 14.64178454648322 10.7349257522385 -1 -1 2
580 1 2 -1.1794 3.688045490788598 11.859895270477045 6.451455540762396 -3 -1 4
581 1 1 0.5897 4.593969145613871 11.991115652879605 6.171301994015083 -3 -1 4
378 1 1 0.5897 1.3102324609775482 14.349356793816941 12.96958486727832 3 2 2
274 1 2 -1.1794 3.595645947952556 15.37762497400216 15.576642236459723 2 6 0
376 1 2 -1.1794 1.9118171036863814 13.977702342490867 13.614845810737904 3 2 2
377 1 1 0.5897 2.783268574470809 14.195144053362897 13.283673372121166 3 2 2
276 1 1 0.5897 2.841195031379358 15.424765503356776 14.989266793093648 2 6 0
461 1 1 0.5897 4.3847703248975884 14.15217202358431 11.680743990297472 8 2 -1
347 1 1 0.5897 2.6367075267389417 12.397442450313807 14.448621084951629 -3 4 -1
799 1 2 -1.1794 0.9016095327844881 15.182215517093496 11.484601175557437 -1 -1 2
267 1 1 0.5897 2.302082659557836 16.410908523456122 11.555071086285539 -1 -1 2
460 1 2 -1.1794 4.37162512789928 14.327659229407232 12.62171112254027 8 2 -1
755 1 1 0.5897 4.508000459656415 11.824501386987006 14.153889598668412 -6 2 -6
736 1 2 -1.1794 2.572152236549545 15.451933877449484 18.03771314146327 5 -4 0
365 1 1 0.5897 2.2838840558713196 12.138764551139813 17.74105477737689 3 3 -2
353 1 1 0.5897 3.9538526579427473 14.260127699140405 20.435701251732354 6 2 -3
364 1 2 -1.1794 1.3955255551068473 12.467254797463779 17.879998072453688 3 3 -2
352 1 2 -1.1794 4.350004083176076 14.003967829060235 19.602735583747013 6 2 -3
738 1 1 0.5897 3.340675993545186 15.004586697313721 18.392169588750903 5 -4 0
366 1 1 0.5897 1.2217983701465092 13.019365150718714 17.11751535640748 3 3 -2
625 1 2 -1.1794 1.3330327083735405 13.240937630286592 20.51636678669385 3 -4 1
737 1 1 0.5897 2.6241087569626496 16.338307593983266 18.395527487246923 5 -4 0
627 1 1 0.5897 1.4892204914699274 13.057023607653797 19.589994735831937 3 -4 1
275 1 1 0.5897 3.2206900201870563 15.44509326901391 16.454850827172315 2 6 0
173 1 1 0.5897 4.7339388618326685 12.172917166955793 20.16156248119372 1 0 -3
629 1 1 0.5897 0.77936081595346 14.985576607308305 17.332032489637086 -3 -3 6
483 1 1 0.5897 2.220535270250193 19.719447767938163 2.9114903987263623 -4 1 1
226 1 2 -1.1794 2.6089951603828436 16.88129677252912 1.180733379901478 5 0 2
372 1 1 0.5897 3.8868002307820992 21.763722998365985 5.407767507406617 -1 7 0
481 1 2 -1.1794 3.043513362091558 19.23628902669058 2.8362912432645633 -4 1 1
228 1 1 0.5897 2.604170608452162 17.69949219039596 1.6776661940886224 5 0 2
488 1 1 0.5897 3.9286881550827997 17.243548461242327 4.845330225753474 0 -10 -1
38 1 1 0.5897 3.022647346975027 18.94808844386347 5.144511641683874 0 1 -2
37 1 2 -1.1794 3.117794209180984 18.318771670540446 5.85955777690405 0 1 -2
482 1 1 0.5897 3.6921483640200785 19.901481149730884 2.605620764157857 -4 1 1
489 1 1 0.5897 4.379319943233588 17.432724624849723 3.412356069308242 0 -10 -1
804 1 1 0.5897 0.8183072109197417 21.218281933806896 1.822714157839446 7 0 -6
802 1 2 -1.1794 0.6404539180155293 20.84650085164603 2.686750093558981 7 0 -6
43 1 2 -1.1794 4.61030637384472 21.351578013049945 1.9917404428906411 5 8 0
74 1 1 0.5897 1.6214185361020577 21.73683344659715 3.951096624285789 1 3 4
293 1 1 0.5897 2.9183051368308845 21.46442130457729 0.9475082590774804 -2 -1 1
841 1 2 -1.1794 1.1848322818464165 18.645376902474204 10.096577441944431 0 4 1
564 1 1 0.5897 4.476304565417837 17.46108529119715 10.667133035430345 2 1 3
190 1 2 -1.1794 2.158837264656558 20.603845774887326 7.564342574322518 4 5 -7
232 1 2 -1.1794 1.0807462415865055 17.40151773466401 7.393805209539805 -1 0 2
234 1 1 0.5897 1.1909938083460343 17.979210538145526 8.14913991924533 -1 0 2
192 1 1 0.5897 1.572903592099585 20.502122251686597 6.8141899146800835 4 5 -7
39 1 1 0.5897 3.7093147641162547 18.746661486468952 6.478748186977965 0 1 -2
191 1 1 0.5897 3.011902936746759 20.801416125311757 7.177515370071457 4 5 -7
842 1 1 0.5897 2.1028104415501705 18.39644219302438 10.20492336414437 0 4 1
843 1 1 0.5897 1.2112929614185453 19.583273228586535 9.906741613807458 0 4 1
233 1 1 0.5897 1.702282210585015 17.73286214678235 6.745492301069457 -1 0 2
370 1 2 -1.1794 4.454031260509257 21.480195238535686 6.12487781084373 -1 7 0
23 1 1 0.5897 4.574087558763668 20.85889291252638 8.757652017911273 -3 -3 2
22 1 2 -1.1794 4.690046486059899 21.614908231030583 9.333311440071785 -3 -3 2
563 1 1 0.5897 4.516750412780269 16.856378878422014 9.279702036455431 2 1 3
433 1 2 -1.1794 2.6385876704024893 18.07621940813527 14.397028500158692 -5 3 -7
29 1 1 0.5897 2.8327579345455787 19.56607187199446 13.154221307320206 -7 -1 5
332 1 1 0.5897 3.958524683377687 21.170691064974438 14.06546187537301 1 2 0
681 1 1 0.5897 2.3684736860516864 21.644041199859398 11.74617309245907 -11 -8 -1
30 1 1 0.5897 4.141245825582996 20.06155320650091 12.575733914259652 -7 -1 5
435 1 1 0.5897 2.0296468026315253 17.798435039084527 15.081459236133451 -5 3 -7
28 1 2 -1.1794 3.211007580744577 20.278520696000665 12.638718930922492 -7 -1 5
434 1 1 0.5897 3.4348073424555334 18.320622205159736 14.86892298592463 -5 3 -7
265 1 2 -1.1794 2.9820559078819 17.07732661950105 11.654635747326807 -1 -1 2
266 1 1 0.5897 3.2786298259884883 16.984207623224787 12.560047925944097 -1 -1 2
50 1 1 0.5897 0.7082165584364759 18.263302130546286 13.404544693588003 9 -3 -2
51 1 1 0.5897 0.731248730244431 18.705044755813294 11.956568393985814 9 -3 -2
331 1 2 -1.1794 4.37076984780291 21.67759371056004 14.765093742642676 1 2 0
728 1 1 0.5897 1.8440722229874942 21.185352827811723 17.37547692479844 -1 0 2
835 1 2 -1.1794 4.3957052661937785 18.400555539783603 16.336599629793326 2 3 -1
279 1 1 0.5897 2.1795449483639615 18.498495243953933 19.56874226937525 -4 0 -2
729 1 1 0.5897 2.9124483833032366 20.12350453199527 17.22264322172945 -1 0 2
277 1 2 -1.1794 2.915627572226486 17.933680208802848 19.33305789721185 -4 0 -2
278 1 1 0.5897 3.1114374375925213 17.44776579791281 20.134261299724287 -4 0 -2
727 1 2 -1.1794 2.53289726067431 20.729403927472873 17.859231904983787 -1 0 2
510 1 1 0.5897 4.3365814937307245 18.97220843951667 19.612913055595733 4 -1 1
294 1 1 0.5897 1.9166322509482066 20.68855441659801 20.85391693344898 -2 -1 0
836 1 1 0.5897 4.6121074763705625 18.032382090858064 17.193353297084307 2 3 -1
292 1 2 -1.1794 2.0892659668602755 21.558783512270846 21.213491001586526 -2 -1 0
286 1 2 -1.1794 0.6672895004671204 19.086151166391957 20.420901367146328 4 6 -3
595 1 2 -1.1794 5.7945910460405905 2.8738940247048763 3.957552285142579 2 -3 -1
261 1 1 0.5897 8.84068331596929 3.855734290228136 2.70300026828545 0 0 11
259 1 2 -1.1794 7.932815544755297 3.7428819292233317 2.4211651578016538 0 0 11
596 1 1 0.5897 6.409258749759974 3.3384456368928 3.389418410803676 3 -3 -1
260 1 1 0.5897 7.77406029777375 4.474369030476127 1.8244076231466948 0 0 11
597 1 1 0.5897 6.346861547165344 2.45950697145733 4.620625999580936 2 -3 -1
779 1 1 0.5897 9.100468576597521 4.473774100763094 4.608406021193815 -3 2 -3
663 1 1 0.5897 5.15926664364033 6.0967897856150985 3.6020159119067023 0 -5 -2
478 1 2 -1.1794 7.686632906565371 2.328791699672534 5.812769258528716 -1 2 -1
806 1 1 0.5897 7.506559295479466 2.141785975103084 1.36264701677384 0 -1 -1
552 1 1 0.5897 7.47271071271395 6.242974237363715 10.057214687702409 3 13 -4
822 1 1 0.5897 7.497766645966275 5.598768937296084 6.667856631030714 3 7 10
551 1 1 0.5897 7.89272434165165 5.472236928978931 8.82359009800226 3 13 -4
319 1 2 -1.1794 6.000137468421673 6.54521907803164 6.671376666340501 2 -1 -5
105 1 1 0.5897 7.1834872559704275 3.545762645870622 9.683899403364054 6 1 6
550 1 2 -1.1794 7.657564415900194 5.3573324942107 9.74440011980861 3 13 -4
104 1 1 0.5897 6.377111042263101 2.2649388771594205 9.64472921008325 6 1 6
103 1 2 -1.1794 7.246195292539583 2.6061752293404568 9.85606018974458 6 1 6
821 1 1 0.5897 7.843681539800283 4.1257436790282025 6.614595480299853 3 7 10
820 1 2 -1.1794 8.170856081147353 4.96936179269814 6.927084050728006 3 7 10
320 1 1 0.5897 5.502538363816303 5.739128098797136 6.533492613069044 2 -1 -5
588 1 1 0.5897 5.8710313344714935 5.182828509943123 9.614677546424835 -2 2 4
656 1 1 0.5897 8.824821467307446 2.4820435417070965 8.724685651910772 -3 6 -5
586 1 2 -1.1794 4.921723878200789 5.121997469687866 9.507440241979936 -2 2 4
11 1 1 0.5897 7.083504486877568 2.4101204541006016 11.718551758553906 -3 -1 3
749 1 1 0.5897 5.49809823773604 5.828759145210591 15.555696598784516 -2 4 2
10 1 2 -1.1794 6.822972532145303 2.590767390591458 12.62184227275387 -3 -1 3
57 1 1 0.5897 7.978333648477047 5.441380077811183 14.947097312808411 -8 -2 3
130 1 2 -1.1794 7.838233386266162 5.338098788398064 12.927653416585057 -3 5 3
55 1 2 -1.1794 8.222214323718585 5.461112797017737 15.872578817681669 -8 -2 3
12 1 1 0.5897 6.002359441912097 3.077228620016533 12.542196629864973 -3 -1 3
132 1 1 0.5897 7.916639164141967 4.735505118762399 12.187978912379005 -3 5 3
499 1 2 -1.1794 8.16882054117648 2.1974089715345824 15.179723698722183 1 4 -5
398 1 1 0.5897 6.229716617638654 5.8643186764251585 13.390262229211563 4 6 -4
397 1 2 -1.1794 5.308931646591947 5.937200873558762 13.641729736054602 4 6 -4
131 1 1 0.5897 8.330695694953967 6.113665797308578 12.658624884875966 -3 5 3
501 1 1 0.5897 7.54500952692351 2.6461782742540265 14.608889117045786 1 4 -5
56 1 1 0.5897 8.870029058676533 4.7624119998373455 15.965020807496051 -8 -2 3
659 1 1 0.5897 5.67129000494723 3.896760505175331 16.855717560914556 -1 -1 3
658 1 2 -1.1794 6.0004239778426065 3.0326545786048063 17.10345823935949 -1 -1 3
138 1 1 0.5897 8.325032749343475 4.2211345812642875 19.106489440892695 7 -5 -3
201 1 1 0.5897 7.53143184131137 2.2498127349890233 18.11200631059826 2 -1 -1
807 1 1 0.5897 7.375045495780019 1.8104557502805427 20.62643586408425 0 -1 -2
200 1 1 0.5897 8.915546139724189 1.951526684566604 18.648220758123145 2 -1 -1
299 1 1 0.5897 7.34778917044106 5.5096420089974885 20.678705571436808 -5 -1 0
300 1 1 0.5897 5.946532969999184 5.374367792027348 21.23590786578869 -5 -1 0
136 1 2 -1.1794 8.561419072718959 5.12385310942658 19.32009114881307 7 -5 -3
528 1 1 0.5897 7.19106970353445 6.117704178116188 18.85173943574157 -3 -6 1
199 1 2 -1.1794 8.069125554798477 2.3204916922413656 18.90084959109702 2 -1 -1
86 1 1 0.5897 4.937225837789107 2.4043788058061777 18.328370474379547 0 6 1
748 1 2 -1.1794 5.22472102222668 5.771233319956213 16.47133044882208 -2 4 2
750 1 1 0.5897 6.009232634924804 5.998252060621065 16.970766027553843 -2 4 2
298 1 2 -1.1794 6.791256925255995 5.791945697857676 21.404624294238648 -5 -1 0
660 1 1 0.5897 5.626312465469591 2.4378799021381976 16.45331723152791 -1 -1 3
241 1 2 -1.1794 7.907773613468503 9.250193129356132 4.883982138821743 2 -2 4
328 1 2 -1.1794 5.356842079220325 9.786425358701212 2.8265054580848603 4 4 1
634 1 2 -1.1794 6.895057910155788 7.0617127894855605 3.8672967832782428 -9 3 -2
329 1 1 0.5897 5.237430057758792 9.269552108889084 2.029655026700749 4 4 1
242 1 1 0.5897 7.547544991256724 10.132543943437827 4.974183507287425 2 -2 4
848 1 1 0.5897 6.374346785664262 11.203168668145093 4.135107894466341 6 -5 5
847 1 2 -1.1794 6.366184579230037 11.573827605318298 5.017682953390692 6 -5 5
636 1 1 0.5897 7.150703380057947 7.92829530543802 4.183675315223686 -9 3 -2
120 1 1 0.5897 8.170534337002987 8.443896692439964 0.9589439001590687 3 -4 -2
121 1 2 -1.1794 8.129341017219438 11.270797159275581 2.312918876305302 -2 1 5
369 1 1 0.5897 5.552451999697984 7.209787013245256 1.0921261467669492 5 2 -6
546 1 1 0.5897 5.393324892838998 9.514683791591334 4.888998406436929 -3 2 3
123 1 1 0.5897 7.8416208463481905 10.42703604796353 1.9640946888458342 -2 1 5
544 1 2 -1.1794 4.99716975092683 9.091605819377262 5.650912369886711 -3 2 3
635 1 1 0.5897 7.425060869691607 6.927092542519172 3.081565727100751 -9 3 -2
321 1 1 0.5897 5.964223856694775 6.9966753926073135 5.8280029034975085 2 -1 -5
243 1 1 0.5897 8.093282365962263 8.973814353986374 5.78155592793465 2 -2 4
264 1 1 0.5897 5.479443437275819 7.936137273537073 9.230416820828053 4 0 7
249 1 1 0.5897 7.282908938440505 8.607451527767829 10.39622763367444 -4 0 0
247 1 2 -1.1794 6.784181583124419 7.809326119697512 10.57134377081666 -4 0 0
303 1 1 0.5897 5.9467847653222305 9.975888299529574 7.171250008223908 -1 6 5
102 1 1 0.5897 7.4187351812998825 10.587745399128849 10.234301089309719 7 -5 -6
301 1 2 -1.1794 6.5985077274455115 10.166037428165488 7.84615075801354 -1 6 5
781 1 2 -1.1794 5.718223974773618 11.244678843912974 10.963561372279475 -7 -2 2
100 1 2 -1.1794 8.2394963792656 10.224873843712304 10.567574028286154 7 -5 -6
302 1 1 0.5897 6.3887564449144 11.05288482350508 8.13924780445744 -1 6 5
492 1 1 0.5897 7.9888092778220035 9.040028567730529 8.015821948428597 3 6 5
782 1 1 0.5897 5.085154237210388 11.241946779337134 10.24550991521801 -7 -2 2
490 1 2 -1.1794 8.787466741657052 8.533698431741188 7.866878679402529 3 6 5
263 1 1 0.5897 5.117010330832387 7.533460018549426 7.816628348165137 4 0 7
783 1 1 0.5897 5.196152691065503 11.06030768723891 11.74452815351013 -7 -2 2
248 1 1 0.5897 6.383591012297003 7.959666494139467 11.427679113217145 -4 0 0
693 1 1 0.5897 5.409345790368706 7.800990951972199 13.529272162087253 -1 -3 0
647 1 1 0.5897 7.302391088964168 9.84527022898841 13.436040392199224 -5 -2 -2
731 1 1 0.5897 8.270434011390892 7.206193397307265 16.14734308616766 4 -1 -3
219 1 1 0.5897 6.88246342314156 9.377474610087095 16.118240951725568 4 -3 -1
648 1 1 0.5897 8.480748445082337 10.659502329312776 13.926719285662095 -5 -2 -2
691 1 2 -1.1794 5.677337277130729 8.583977898424301 13.048122864566327 -1 -3 0
646 1 2 -1.1794 8.095607300361804 10.287425554679418 13.133242130302039 -5 -2 -2
730 1 2 -1.1794 8.331896017451996 8.160932150627932 16.11448834308304 4 -1 -3
217 1 2 -1.1794 6.243342042853237 10.089921844561163 16.100001207962393 4 -3 -1
756 1 1 0.5897 5.9172719747513085 11.573689374341358 14.6472464044433 -6 2 -6
69 1 1 0.5897 8.928828994979225 8.55607440953688 12.709924970495859 8 -2 -9
101 1 1 0.5897 8.163911802331942 10.294862729266264 11.51930725205745 7 -5 -6
692 1 1 0.5897 4.855007874279018 8.992701089638855 12.77773633494676 -1 -3 0
112 1 2 -1.1794 7.1425061249978015 11.690104934029584 18.32290794876218 -5 -5 1
113 1 1 0.5897 6.8048391476356676 11.516442028120286 19.201659296990933 -5 -5 1
218 1 1 0.5897 6.507650704477062 10.667842740299898 16.815912175710366 4 -3 -1
408 1 1 0.5897 7.844237522593126 10.046786723645317 18.347389786298336 -4 -3 3
406 1 2 -1.1794 8.118183941324002 9.209702695608792 18.722394299349766 -4 -3 3
527 1 1 0.5897 7.195797318145499 7.626968529477853 18.73180562549252 -3 -6 1
119 1 1 0.5897 8.07297261361529 9.195694261250836 20.383644317159174 3 -4 -3
407 1 1 0.5897 8.53133466081674 8.74451786532403 17.99486453097778 -4 -3 3
172 1 2 -1.1794 5.172468627908189 11.424763980110692 20.566981227797626 1 0 -3
526 1 2 -1.1794 6.617158727591823 6.865739842861685 18.686042768272138 -3 -6 1
118 1 2 -1.1794 7.8431816346126695 9.257712183426566 21.31087600661577 3 -4 -3
368 1 1 0.5897 4.876047087384135 8.185441827674179 20.887778338385154 5 2 -6
62 1 1 0.5897 8.66197881180425 14.244304931762342 5.617672764129465 -2 2 5
428 1 1 0.5897 5.775860514254138 13.547673577790452 2.3125131099004976 -4 -3 0
849 1 1 0.5897 6.866119383019424 12.386606627974313 4.941274653670714 6 -5 5
31 1 2 -1.1794 6.998337072762165 15.94754940459541 3.462173451052011 2 6 4
35 1 1 0.5897 8.728540071671844 15.931794308210844 2.5275366614700427 -6 2 0
32 1 1 0.5897 7.2755922887633355 15.484200244866994 4.252631909563892 2 6 4
33 1 1 0.5897 6.094658715581506 16.207843484390942 3.641062880818912 2 6 4
427 1 2 -1.1794 6.297897457212956 13.245571177137734 1.569126655467898 -4 -3 0
63 1 1 0.5897 8.375606719013504 13.260376369234308 4.503127951568148 -2 2 5
61 1 2 -1.1794 7.9706953464920725 13.955821254740794 5.021611635498665 -2 2 5
429 1 1 0.5897 5.726851597032667 12.630170559367981 1.109143412774258 -4 -3 0
140 1 1 0.5897 6.555229266754169 14.967572236767824 0.8871898063253454 1 1 -3
122 1 1 0.5897 7.425509307860678 11.877829868666868 2.0837586160813633 -2 1 5
203 1 1 0.5897 4.939254557709298 14.310856906314557 5.473650988973846 -6 2 3
394 1 2 -1.1794 5.921588862916765 12.861850719945899 8.4119357852735 3 -1 5
111 1 1 0.5897 7.250113031960671 15.723746530886247 8.54022029925935 -1 -2 -7
109 1 2 -1.1794 7.415378364447083 14.952810170832171 9.083126453382112 -1 -2 -7
110 1 1 0.5897 7.470980088202397 15.2950649909965 9.975406207349874 -1 -2 -7
395 1 1 0.5897 5.575877040154554 13.359744216567183 7.6710097369535415 3 -1 5
204 1 1 0.5897 5.822963163274472 15.112366882790957 6.405828286560719 -6 2 3
396 1 1 0.5897 6.531046897484845 13.46240093862927 8.841229572087304 3 -1 4
202 1 2 -1.1794 5.058280038099525 14.536555000525752 6.396325553160939 -6 2 3
684 1 1 0.5897 8.844878937193773 13.97808895984014 8.770260527772999 6 -1 -6
539 1 1 0.5897 4.857687200340248 14.279970423615078 16.103151121648406 -1 -3 -1
677 1 1 0.5897 6.971027859714033 12.661245751352014 11.785380580774316 -3 1 -6
678 1 1 0.5897 7.625178176599576 13.615537442616292 12.76195116911413 -3 1 -6
548 1 1 0.5897 8.98721528974954 14.40342917002126 11.558723893179868 4 2 5
832 1 2 -1.1794 7.761767055305143 13.836428557305105 14.542854471907887 1 -4 3
833 1 1 0.5897 7.0513650149261204 13.821246201435265 15.184334632049802 1 -4 3
834 1 1 0.5897 8.280344680991288 14.606201959993829 14.77723533958045 1 -4 3
676 1 2 -1.1794 7.535034190878801 13.433642007025878 11.82644422745224 -3 1 -6
631 1 2 -1.1794 8.665327442954228 16.52398412666595 16.150190519155128 2 -1 4
774 1 1 0.5897 5.275870159881855 15.768448035771986 13.397290213248631 5 0 0
462 1 1 0.5897 4.859175881328011 13.600190696683088 13.008356189620885 8 2 -1
772 1 2 -1.1794 5.658849151496075 16.569153440003895 13.75589322852786 5 0 0
773 1 1 0.5897 5.084841876814716 16.80405372653706 14.485093905918342 5 0 0
754 1 2 -1.1794 5.42586421475389 11.895952841725716 13.89154709302326 -6 2 -6
666 1 1 0.5897 7.133810253229398 16.273557303057544 18.183101087755993 2 2 -1
139 1 2 -1.1794 6.290608256087717 15.637997789577069 20.9924237259634 1 1 -4
665 1 1 0.5897 6.178285321477533 15.657495385972389 17.183224957003674 2 2 -1
141 1 1 0.5897 7.002159356439927 15.660135659002831 20.35242759587579 1 1 -4
538 1 2 -1.1794 5.669275090515366 13.86737745732307 16.398908659349182 -1 -3 -1
114 1 1 0.5897 7.990348914955575 12.109476374195749 18.47012051231259 -5 -5 1
540 1 1 0.5897 5.397067969471357 13.281443561751649 17.10530498828902 -1 -3 -1
354 1 1 0.5897 5.20416138417852 14.436161200998367 19.600227928367445 6 2 -3
418 1 2 -1.1794 8.407644514314056 15.394250279463867 19.10347377791914 -14 -1 5
420 1 1 0.5897 8.62677134188698 14.514215090596613 19.40991586357145 -14 -1 5
664 1 2 -1.1794 6.421457273283753 16.492907850131726 17.58241142265578 2 2 -1
633 1 1 0.5897 7.743599193745021 16.718870508635483 16.32008388808993 2 -1 4
175 1 2 -1.1794 5.736580761237932 18.06738882988525 1.4532775051568976 6 -1 4
616 1 2 -1.1794 6.093247049409529 19.50930598242796 4.54394069137709 -4 3 1
176 1 1 0.5897 5.854274498401449 17.1592888743202 1.174118144889161 6 -1 4
805 1 2 -1.1794 7.219790809974344 21.470508671152135 0.7648420301220098 0 -2 -1