LAMMPS data file via write_data, version 30 Jul 2021, timestep = 35000000

1920 atoms
2 atom types
1280 bonds
1 bond types
640 angles
1 angle types

-0.002233805001507605 24.732234804986 xlo xhi
-0.014915202061278166 24.744916202042273 ylo yhi
0.05158626852688464 22.75841373147859 zlo zhi

Masses

1 1.008
2 15.999

Pair Coeffs # lj/cut/tip4p/long/omp

1 0 0
2 0.21084 3.1668

Bond Coeffs # harmonic/omp

1 450 0.9572

Angle Coeffs # harmonic/omp

1 55 104.52

Atoms # full

1 1 2 -1.1794 4.375084122289668 1.515462853472566 4.16288063892659 0 0 0
2 1 1 0.5897 4.48078730746305 2.184399414822819 4.839384858109739 0 0 0
3 1 1 0.5897 5.149070588794193 1.6109627502201518 3.6078612705833315 0 0 0
4 2 2 -1.1794 2.881376822994538 1.5070667875073935 1.8281051229922831 0 0 0
5 2 1 0.5897 3.3065251034745127 1.549429132356095 2.6847123787965446 0 0 0
6 2 1 0.5897 1.9487321872065244 1.4247028717800485 2.026971438277381 0 0 0
10 4 2 -1.1794 3.1258005985287034 4.497585820180365 3.5375679817320793 0 0 0
11 4 1 0.5897 2.731248477378021 5.233696413819429 4.005254883318644 0 0 0
12 4 1 0.5897 2.711193696401845 4.511300688596375 2.6748766526056396 0 0 0
13 5 2 -1.1794 1.3602787850430118 2.943281244711802 4.994634701799234 0 0 0
14 5 1 0.5897 2.0142848944853244 3.3165693677833596 4.403722158901306 0 0 0
15 5 1 0.5897 1.5214517006567823 2.0001714207600343 4.966013789272074 0 0 0
22 8 2 -1.1794 1.4967108497157395 4.348426334749188 1.445721820590887 0 0 0
24 8 1 0.5897 1.375068246024635 5.091186793068621 0.8542797863180743 0 0 0
23 8 1 0.5897 0.7829108787761855 4.426213352472842 2.0787218195737807 0 0 0
20 7 1 0.5897 3.849061543575232 2.8363445421093623 0.8295683531681464 0 0 0
9 3 1 0.5897 5.041695798221331 4.307613799037036 3.4579874608666206 0 0 0
19 7 2 -1.1794 4.662202050695751 3.1814305978579007 0.46090065585487355 0 0 0
21 7 1 0.5897 5.351240750599783 2.816236522210162 1.0159635577037727 0 0 0
27 9 1 0.5897 4.613434570410052 5.008718710835336 0.7886447842445568 0 0 0
28 10 2 -1.1794 1.6797229260518953 0.21975259328578528 4.885668918474237 0 0 0
98 33 1 0.5897 0.03482922858267323 5.453051646486081 3.9818809466853717 1 0 0
7 3 2 -1.1794 5.995540214132942 4.375038851195975 3.4157799266638182 0 0 0
16 6 2 -1.1794 0.13674465338127417 1.3880885782386698 2.1307520785571277 0 0 0
387 129 1 0.5897 3.941635112498973 0.2566626597171372 1.1704734912282961 0 1 0
150 50 1 0.5897 1.5455108027616193 5.898249425571655 5.6452158582564165 0 0 0
25 9 2 -1.1794 4.489929207191456 5.957342821054175 0.7553136573634733 0 0 0
99 33 1 0.5897 0.19541103798773746 3.9485252811083487 4.032655693226771 1 0 0
47 16 1 0.5897 6.001116895456029 0.8597255201544753 1.658420715884847 0 0 0
867 289 1 0.5897 4.368399639761814 0.022414888320344134 5.620635963196821 0 1 0
145 49 2 -1.1794 4.756089774920312 12.235063025210724 0.7265646514198236 0 0 0
136 46 2 -1.1794 0.15070636371205381 7.73192339415624 2.1747937726143163 0 0 0
218 73 1 0.5897 0.2580154891200115 10.774604064319034 2.8387720833909187 1 0 0
26 9 1 0.5897 5.25088631890542 6.314669993034716 1.2129962098641136 0 0 0
148 50 2 -1.1794 1.5219591655278681 6.317614865256948 4.785029450866637 0 0 0
121 41 2 -1.1794 4.464044465613636 7.595656083988045 4.127410859869214 0 0 0
122 41 1 0.5897 3.772120875883926 7.528216166802603 3.4694194019584486 0 0 0
123 41 1 0.5897 5.277650367450706 7.560818842529118 3.62437854189647 0 0 0
124 42 2 -1.1794 2.8539583534371653 7.755490167964731 1.9928566075305487 0 0 0
125 42 1 0.5897 3.3025714161673054 7.062541618462101 1.508265461464733 0 0 0
126 42 1 0.5897 3.2819634723189126 8.563035743322185 1.7083827459514547 0 0 0
129 43 1 0.5897 5.164848759397524 10.766214967882982 3.812612976146678 0 0 0
130 44 2 -1.1794 3.279074815934405 10.957601311208666 3.5964464146198654 0 0 0
132 44 1 0.5897 2.9478700635627932 10.119681014775841 3.919635795552425 0 0 0
133 45 2 -1.1794 1.6836098385109892 9.048697429692004 4.921395711039165 0 0 0
135 45 1 0.5897 0.9942812495462593 9.47941785727949 4.415887710535936 0 0 0
137 46 1 0.5897 1.1032656181519442 7.650812739258772 2.1278879105979396 0 0 0
139 47 2 -1.1794 4.860718447967599 9.511570617820112 0.9112861823371889 0 0 0
142 48 2 -1.1794 1.4256238282279912 10.654113972901035 1.4810166098294355 0 0 0
143 48 1 0.5897 2.1734773228120248 10.851068256214852 2.045064153388374 0 0 0
144 48 1 0.5897 1.4516163053006739 11.32965588623369 0.8033149462138305 0 0 0
149 50 1 0.5897 1.5570328458041847 7.255298268197754 4.974180380190414 0 0 0
131 44 1 0.5897 2.8442038778272885 11.613726144806634 4.141108864858732 0 0 0
140 47 1 0.5897 4.831689102906909 10.464853941429483 0.8296394062866661 0 0 0
168 56 1 0.5897 5.973448776101675 8.187625036156112 1.6121567209722492 0 0 0
270 90 1 0.5897 0.8797518131589108 12.027857739873898 4.675647044908104 0 0 0
127 43 2 -1.1794 6.109797304663148 10.63009050118686 3.7441242856302597 0 0 0
621 207 1 0.5897 4.254672021069802 8.869918916699401 5.654659612372044 0 0 0
507 169 1 0.5897 4.446167117375906 6.515266355937646 5.596410947029175 0 0 0
1574 525 1 0.5897 1.4638774670514734 9.46358229475177 0.12364295152864761 0 0 1
496 166 2 -1.1794 0.1959788164869052 1.865738835276863 7.7985873667464904 0 0 0
579 193 1 0.5897 0.2456428652389222 5.34472654969634 9.68965803334008 1 0 0
528 176 1 0.5897 6.07415126510753 2.255219545754392 7.313943450290861 0 0 0
578 193 1 0.5897 0.25297355559605816 3.8409510621516882 9.514843970511548 1 0 0
494 165 1 0.5897 1.407229841808972 1.8973993403784455 10.596932275289783 0 0 0
504 168 1 0.5897 1.4012692369108897 4.09760097827382 6.451144233802689 0 0 0
501 167 1 0.5897 4.665927025370408 4.272181202106893 6.247757013248353 0 0 0
499 167 2 -1.1794 4.767015909748291 3.320462067941406 6.231479527742413 0 0 0
483 161 1 0.5897 4.6385794694972535 2.4441728318478466 10.42995955538147 0 0 0
492 164 1 0.5897 2.6443533070784473 4.013360864912027 9.735953346639105 0 0 0
493 165 2 -1.1794 1.457485771929411 2.8528724729227655 10.568574493567757 0 0 0
491 164 1 0.5897 2.5862939201309167 4.730312993331176 8.40374545017911 0 0 0
485 162 1 0.5897 3.430774613900235 1.9185427360706346 8.62167323288982 0 0 0
481 161 2 -1.1794 4.547294615860888 1.6911673933963767 9.8460538418251 0 0 0
482 161 1 0.5897 5.3500886702993125 1.6929280574960044 9.324775601001958 0 0 0
502 168 2 -1.1794 1.452882230618587 4.8835639427147575 6.9951011684378654 0 0 0
500 167 1 0.5897 4.060159692302777 2.994471474710126 6.7885403321576785 0 0 0
490 164 2 -1.1794 3.096534319334846 4.674407749570079 9.211728951716035 0 0 0
503 168 1 0.5897 0.7843558391151555 4.754202296040834 7.667850211478528 0 0 0
498 166 1 0.5897 1.1480683582537183 1.7983079381046554 7.870178480344725 0 0 0
484 162 2 -1.1794 2.9359525364754977 1.8000504915654874 7.8108620218842075 0 0 0
489 163 1 0.5897 4.95972793469534 4.840717267708462 9.349059457750407 0 0 0
486 162 1 0.5897 3.3958449103732513 1.0988502379650675 7.349262716588457 0 0 0
527 176 1 0.5897 5.878540645296059 0.7686715121151247 7.5233807347295905 0 0 0
629 210 1 0.5897 2.1912969872221684 6.168337716801685 10.062906696465715 0 0 0
487 163 2 -1.1794 5.911789070309307 4.918672881822235 9.288644099071268 0 0 0
505 169 2 -1.1794 4.491901763830658 6.002360461454244 6.403361187744338 0 0 0
508 170 2 -1.1794 1.367635430981116 0.1704977992565293 10.550803953157658 0 0 0
1347 449 1 0.5897 4.481241142622222 0.30354803659716806 11.15863515633384 0 1 0
134 45 1 0.5897 1.652378464286996 9.472146381405068 5.779333981246171 0 0 0
1101 367 1 0.5897 4.457417216595713 9.026782453651375 11.374233597956104 0 0 0
603 201 1 0.5897 3.82133743476898 7.718560566144665 9.451459578381835 0 0 0
619 207 2 -1.1794 4.485718412085565 9.330787477075905 6.461224108631179 0 0 0
611 204 1 0.5897 4.237523049146355 10.903598573029152 9.28066269919271 0 0 0
628 210 2 -1.1794 1.4659684495214262 6.431628764042507 10.629303370368342 0 0 0
607 203 2 -1.1794 5.917680779605645 10.858631753725698 9.414042706715112 0 0 0
613 205 2 -1.1794 1.6033047973420729 9.172359072639301 10.668549422716143 0 0 0
604 202 2 -1.1794 2.7914590782032 7.638861804229154 7.979130274980077 0 0 0
506 169 1 0.5897 3.7868250716427245 6.350349632052572 6.949254766732358 0 0 0
626 209 1 0.5897 4.615592401582268 11.146317806972469 6.381745659307009 0 0 0
612 204 1 0.5897 2.9553282930288134 11.566771231939082 9.736694663331711 0 0 0
605 202 1 0.5897 3.1611497103167663 8.371983388837085 7.487063896284042 0 0 0
620 207 1 0.5897 5.235905441636037 8.847440673303039 6.807340714232038 0 0 0
630 210 1 0.5897 1.5971145020403137 7.369797793244686 10.766759361135277 0 0 0
602 201 1 0.5897 4.514022286946427 7.25618109156169 10.715771422611224 0 0 0
614 205 1 0.5897 2.3675968765478475 9.55120766077426 10.234337651112838 0 0 0
624 208 1 0.5897 1.64955272368942 11.30591534019873 6.538214022036002 0 0 0
601 201 2 -1.1794 4.551236649761952 7.9274994049217895 10.034408124277158 0 0 0
616 206 2 -1.1794 0.004386324669182309 7.882732790711708 7.747810931775448 0 0 0
625 209 2 -1.1794 4.456770981620572 12.088768222609312 6.328692387583508 0 0 0
698 233 1 0.5897 0.32571358685158386 11.436085731752726 9.719162669056495 1 0 0
615 205 1 0.5897 0.8541877285769761 9.586394373335859 10.240052691496125 0 0 0
623 208 1 0.5897 2.323525424170517 10.621596523830933 7.708489421567899 0 0 0
648 216 1 0.5897 5.701566673994347 7.004287471782217 7.419014283196507 0 0 0
606 202 1 0.5897 1.8444206100888123 7.737798243615253 7.881775946616237 0 0 0
647 216 1 0.5897 5.76134223999565 7.86190343340658 8.66523528144715 0 0 0
622 208 2 -1.1794 1.5505367205451126 10.573075202181217 7.146032852587769 0 0 0
610 204 2 -1.1794 3.285026317909566 10.820466275933223 9.23609071059912 0 0 0
699 233 1 0.5897 0.24136009931633895 10.638658863303673 8.434972476222669 1 0 0
961 321 2 -1.1794 4.4454445744888025 1.623652234334546 15.410550984167216 0 0 0
962 321 1 0.5897 5.249209279016013 1.7122721388601678 14.89837359893072 0 0 0
963 321 1 0.5897 4.552868125073085 0.7993014778020952 15.885090538418456 0 0 0
964 322 2 -1.1794 2.732995991301366 1.5981568986189394 13.239503222375507 0 0 0
965 322 1 0.5897 3.1590509388247234 1.6111562740714358 14.09661002561793 0 0 0
966 322 1 0.5897 1.7986895158113594 1.6691585179563246 13.434912939406063 0 0 0
970 324 2 -1.1794 3.1086880736822833 4.740742929812339 14.87479785198948 0 0 0
971 324 1 0.5897 4.061704757008704 4.654091186468572 14.894711332800814 0 0 0
972 324 1 0.5897 2.790622720278938 4.017394150985386 15.415056300804354 0 0 0
973 325 2 -1.1794 1.520180120961362 2.9076037007494806 16.267266763030044 0 0 0
975 325 1 0.5897 0.7361068548070041 3.321376589583074 15.906393713936938 0 0 0
982 328 2 -1.1794 1.2204852591353672 4.683499918573219 12.79182864447106 0 0 0
983 328 1 0.5897 1.3893171953984211 5.373849937987449 12.150566042830283 0 0 0
984 328 1 0.5897 1.950681806761329 4.744199524384385 13.4077540864576 0 0 0
980 327 1 0.5897 3.7952905119232936 2.8462896852554795 12.281099565137383 0 0 0
981 327 1 0.5897 5.3061548875103135 2.8853651189566243 12.36737553056299 0 0 0
979 327 2 -1.1794 4.554784206997774 3.369496085909101 12.024941223424861 0 0 0
990 330 1 0.5897 1.5676473398157609 1.0669202511527807 16.362451088603024 0 0 0
986 329 1 0.5897 4.424162038062768 5.240052556620963 12.22398348143127 0 0 0
1109 370 1 0.5897 0.516602657589422 6.058918025549322 15.930797457080843 0 0 0
967 323 2 -1.1794 5.80440337070815 4.649234392723971 15.032752732148186 0 0 0
1346 449 1 0.5897 3.9696074484860744 0.2551750129920471 12.582732609226435 0 1 0
1110 370 1 0.5897 2.0251072688305563 6.0133063292432025 15.812413882008833 0 0 0
1008 336 1 0.5897 5.977224855403495 0.8833116563736821 12.880394446192936 0 0 0
976 326 2 -1.1794 0.12096266441456811 1.6533028464419133 13.609796711144025 0 0 0
988 330 2 -1.1794 1.5959169784714866 0.11212925385193973 16.30049731788371 0 0 0
1058 353 1 0.5897 0.019090879841378843 4.72209289499152 14.175557452978468 1 0 0
1460 487 1 0.5897 4.7733311172543145 2.7022425630992593 16.801751090691226 0 0 0
969 323 1 0.5897 6.158811997255181 3.7913213236056458 15.266474895716055 0 0 0
495 165 1 0.5897 1.327838256018598 3.1270653043226515 11.476519641374018 0 0 0
985 329 2 -1.1794 4.5289620371586405 6.188175427857663 12.144403256490063 0 0 0
1108 370 2 -1.1794 1.3181080946496344 6.386374679252129 16.338912344731334 0 0 0
987 329 1 0.5897 3.841665103394205 6.553217300050393 12.701719470003171 0 0 0
1128 376 1 0.5897 5.9053151454188395 7.104216844748697 13.10975281433988 0 0 0
1081 361 2 -1.1794 4.576939151432039 7.736671155527226 15.77184472872118 0 0 0
1082 361 1 0.5897 4.622860933415463 8.502558660623755 16.344208670683216 0 0 0
1083 361 1 0.5897 4.413173404164524 7.003376184161303 16.36493285008897 0 0 0
1084 362 2 -1.1794 2.8397012627759093 7.6657485423493394 13.642040869131538 0 0 0
1085 362 1 0.5897 3.377854222698722 7.652164109005037 14.433559456551972 0 0 0
1086 362 1 0.5897 3.1691586445840327 8.411554639412412 13.140531929731683 0 0 0
1089 363 1 0.5897 5.223793631983782 10.669960251096194 15.048501750797357 0 0 0
1090 364 2 -1.1794 3.383322194821535 10.752380426033621 15.070204754391257 0 0 0
1091 364 1 0.5897 3.069013281827719 11.599827444940315 15.385319310823913 0 0 0
1092 364 1 0.5897 2.9795965741243515 10.11323904608808 15.657386259395393 0 0 0
1095 365 1 0.5897 0.9046415447930062 9.604946009352265 16.010376987670533 0 0 0
1097 366 1 0.5897 1.0085748704756399 7.847236463075231 13.656775790281667 0 0 0
1099 367 2 -1.1794 4.4589184575869325 9.457531897747055 12.229098738044515 0 0 0
1102 368 2 -1.1794 1.5230276722204714 10.872869249689419 12.986995932489222 0 0 0
1104 368 1 0.5897 2.33486480104007 10.76938203368072 13.483402083194092 0 0 0
1093 365 2 -1.1794 1.6264664017151385 9.134925261961532 16.42783226341929 0 0 0
1103 368 1 0.5897 1.5732066225576908 10.205206278298396 12.302877401198952 0 0 0
1100 367 1 0.5897 5.184177554883918 9.049572833514157 12.702165279649641 0 0 0
1094 365 1 0.5897 1.4396771585673003 8.211069897462748 16.26093621651708 0 0 0
1107 369 1 0.5897 4.6881118719335 11.180595382271076 12.33792999047695 0 0 0
1105 369 2 -1.1794 4.839517850595376 12.114841936333178 12.481154272930096 0 0 0
1087 363 2 -1.1794 6.169194162467517 10.612120702404178 14.910578634070127 0 0 0
1127 376 1 0.5897 5.864045608263407 7.695554350934971 14.502880360488025 0 0 0
1179 393 1 0.5897 0.43041328381540067 10.662449680166477 14.362018603526286 1 0 0
1178 393 1 0.5897 0.1843162890512724 11.433045025995188 15.641772081058937 1 0 0
1096 366 2 -1.1794 0.0932785142814666 7.856945551034914 13.376952283157403 0 0 0
750 250 1 0.5897 1.5127738726451647 12.116142125291633 11.580316664287775 0 0 0
974 325 1 0.5897 1.6420599543204977 3.326453061332485 17.119353084560466 0 0 0
1539 513 1 0.5897 0.26753524581739646 5.444083681901787 20.95082161431649 1 0 0
1826 609 1 0.5897 3.9242833134109887 0.07855898788126027 17.919268613451912 0 1 0
1468 490 2 -1.1794 1.640144822391855 0.20347788229308608 21.751583312743463 0 0 0
1456 486 2 -1.1794 0.24922821336493733 1.649227846739992 19.042617268374116 0 0 0
1454 485 1 0.5897 2.43657710220117 3.296025041488832 21.47929122699599 0 0 0
1464 488 1 0.5897 1.045913949908117 4.707546347378312 19.06129447743404 0 0 0
1443 481 1 0.5897 4.756417761120417 1.9858313724369898 21.856746420701853 0 0 0
1450 484 2 -1.1794 3.369338573335567 4.813962837560651 20.711828692343204 0 0 0
1469 490 1 0.5897 1.6739456349076498 1.1600666882529704 21.744582915503123 0 0 0
1442 481 1 0.5897 4.154248257076056 1.4844495308183892 20.56132535897158 0 0 0
1453 485 2 -1.1794 1.6357493483833228 2.8884287269261786 21.809035750235743 0 0 0
1444 482 2 -1.1794 3.002877023688826 1.357811294601773 18.956573821157264 0 0 0
1463 488 1 0.5897 1.5671579126875126 5.310615184919578 17.774148478274313 0 0 0
1452 484 1 0.5897 3.0274874619598524 4.783175895235184 19.818226171750702 0 0 0
1441 481 2 -1.1794 4.87813283362879 1.331586745655505 21.168662344013526 0 0 0
1451 484 1 0.5897 4.319821668513211 4.773146699172349 20.606639868522535 0 0 0
1445 482 1 0.5897 2.0633088302555556 1.5348210986241766 19.00162498402922 0 0 0
1446 482 1 0.5897 3.367618419737907 2.1135228179608783 18.496000477700456 0 0 0
1461 487 1 0.5897 5.4407735085703 2.680172844466626 18.160482652231373 0 0 0
1459 487 2 -1.1794 4.797103941000967 3.1619626009430606 17.64105617542711 0 0 0
1462 488 2 -1.1794 1.7720354303705423 4.654033626632292 18.43990406928335 0 0 0
1466 489 1 0.5897 4.680217868788053 4.931972925755431 17.789913369671552 0 0 0
1465 489 2 -1.1794 4.606009656950293 5.886298919710541 17.78702037322349 0 0 0
1538 513 1 0.5897 0.43005910432940536 3.9389900489939413 20.935674045344008 1 0 0
1488 496 1 0.5897 5.820870627296949 0.6554287269771668 18.40267531406854 0 0 0
1590 530 1 0.5897 2.284451468911735 6.01083130007785 21.767240253351055 0 0 0
1487 496 1 0.5897 5.952116204666173 1.2962562716512114 19.768065055249707 0 0 0
1447 483 2 -1.1794 6.0002659270362315 4.7441337561293055 20.497628358880114 0 0 0
1537 513 2 -1.1794 0.004257289807945597 4.659086421525987 20.470470002530973 1 0 0
1455 485 1 0.5897 1.479406704593478 3.3140042106091925 22.652113830270732 0 0 0
386 129 1 0.5897 4.708646938930129 0.1004345363851343 22.5813935058778 0 1 -1
1230 410 1 0.5897 1.749197643879626 12.080702699728826 17.23175222683713 0 0 0
1608 536 1 0.5897 6.127949809211042 7.635695354268234 19.941459385921533 0 0 0
1658 553 1 0.5897 0.14202076837455344 10.058796365265858 20.825589013467216 1 0 0
1710 570 1 0.5897 2.2470758371733255 12.010321330928358 21.691519482642995 0 0 0
1588 530 2 -1.1794 1.4761547938236792 6.31631660573366 22.178984389665814 0 0 0
1572 524 1 0.5897 4.285852753993928 10.89084235339174 20.76822255407852 0 0 0
1585 529 2 -1.1794 4.686963152790527 12.232194276100696 17.919094986825534 0 0 0
1587 529 1 0.5897 4.865627254247631 11.291811216932812 17.916032718830046 0 0 0
1561 521 2 -1.1794 4.823808851697737 7.821811771697688 21.37619564659977 0 0 0
1564 522 2 -1.1794 2.978466110872673 7.791398833696885 19.34575520245204 0 0 0
1567 523 2 -1.1794 6.047886392596688 10.760626831285215 20.829953454254046 0 0 0
1570 524 2 -1.1794 3.333629830653382 10.804678536874615 20.812885617750922 0 0 0
1589 530 1 0.5897 1.4821195658899884 7.264140795669857 22.045382540183596 0 0 0
1583 528 1 0.5897 1.0816608720613794 10.778942957354511 19.192037377471806 0 0 0
1562 521 1 0.5897 4.7672186404979655 7.030926706600525 21.912473090811368 0 0 0
1467 489 1 0.5897 5.3656988170284 6.187604962361102 18.28531789046724 0 0 0
1581 527 1 0.5897 5.519249745607383 8.974926762963998 18.269417621261113 0 0 0
1573 525 2 -1.1794 1.4905245932108355 9.029521559865273 21.977696604168095 0 0 0
1566 522 1 0.5897 3.141125105237354 7.014707727171361 18.81042273226346 0 0 0
1580 527 1 0.5897 4.018084030783199 9.140137264890786 18.373784991860873 0 0 0
1563 521 1 0.5897 4.110284734432948 7.734780402880489 20.744094330816594 0 0 0
1582 528 2 -1.1794 1.8468789862574975 10.75890147054598 18.617352363733062 0 0 0
1576 526 2 -1.1794 0.16478585940130538 7.803015883625578 19.115101885445803 0 0 0
1579 527 2 -1.1794 4.7886690357321875 9.48920401047966 17.925944176749454 0 0 0
1709 570 1 0.5897 0.7395709369482857 12.06679978900037 21.565344438298773 0 0 0
1584 528 1 0.5897 1.650990057544858 10.071484961434207 17.98065078440841 0 0 0
1571 524 1 0.5897 3.054537809728628 10.749563987513874 19.89887494239477 0 0 0
1565 522 1 0.5897 2.0360284860242155 7.941110486336567 19.271259044563735 0 0 0
1575 525 1 0.5897 2.222796539159906 9.443131351448901 21.520614784221685 0 0 0
141 47 1 0.5897 4.686508357022906 9.189543898060633 22.73363935400151 0 0 -1
241 81 2 -1.1794 4.654522253241277 13.941005498959939 4.326629991210439 0 0 0
242 81 1 0.5897 4.475098554490604 13.24862235666203 4.96279956783161 0 0 0
243 81 1 0.5897 3.9240372785840654 13.895376317259986 3.709746646157174 0 0 0
244 82 2 -1.1794 2.8735470775880123 13.824825393951683 2.15678396154253 0 0 0
245 82 1 0.5897 1.9263818637043026 13.961119155840548 2.17798765404336 0 0 0
246 82 1 0.5897 3.2125778461053636 14.572315855119045 1.6642552068110648 0 0 0
250 84 2 -1.1794 3.2083109140351715 16.980932134257923 3.9271576336405696 0 0 0
251 84 1 0.5897 2.9482088361813674 16.97561827834559 3.0059267378058863 0 0 0
252 84 1 0.5897 4.156695427995827 16.85285568788134 3.9094542636909173 0 0 0
253 85 2 -1.1794 1.4280365471955587 15.226730360267746 5.089272195648062 0 0 0
255 85 1 0.5897 2.207555537559097 15.717819362115002 4.829706274002603 0 0 0
259 87 2 -1.1794 4.496001209165628 15.72224711377023 0.8332830354927182 0 0 0
262 88 2 -1.1794 1.5273237776661195 17.09521497604285 1.5799247351298584 0 0 0
263 88 1 0.5897 1.5837202272123507 16.32904409514258 1.0088780904192007 0 0 0
264 88 1 0.5897 1.4191782359150134 17.833728340836814 0.980592223250726 0 0 0
269 90 1 0.5897 1.4363111146907273 13.371082545911634 5.097455436807025 0 0 0
254 85 1 0.5897 0.695419873909939 15.751390745622322 4.766463511747474 0 0 0
260 87 1 0.5897 4.687564277248538 16.648428884838268 0.6858183337630104 0 0 0
288 96 1 0.5897 5.791596898085109 14.671077048957667 1.6659372607541998 0 0 0
147 49 1 0.5897 5.429779498423882 12.741529014731363 1.180280864701607 0 0 0
268 90 2 -1.1794 1.5917024297614633 12.42963989117816 5.173562174659102 0 0 0
146 49 1 0.5897 3.942506490476613 12.459215461587572 1.1782699656942297 0 0 0
338 113 1 0.5897 0.3629618780659243 16.947821817659165 3.0458136692831332 1 0 0
287 96 1 0.5897 6.015366683971054 13.982198803450212 2.9954252457323434 0 0 0
339 113 1 0.5897 0.11631059793510812 17.773671960785013 4.290514913903376 1 0 0
389 130 1 0.5897 2.2178151294453 18.3789485307357 4.67864418895265 0 0 0
247 83 2 -1.1794 5.950279090696598 16.875672881746496 3.7394343362470255 0 0 0
265 89 2 -1.1794 4.834277511263754 18.458591435357807 0.7640844621209818 0 0 0
256 86 2 -1.1794 0.020268274580132584 13.998951636320836 1.9858327400164584 0 0 0
740 247 1 0.5897 4.6671290010393305 15.201334516849952 5.715990463175111 0 0 0
267 89 1 0.5897 4.049455078963303 18.68245267016442 1.2642345244459483 0 0 0
388 130 2 -1.1794 1.530364052010019 18.7873581013827 5.204806140864823 0 0 0
458 153 1 0.5897 0.28979510095743727 24.030603005563385 4.056360902152262 1 0 0
361 121 2 -1.1794 4.650706336022983 20.00647797498744 4.271480588296371 0 0 0
362 121 1 0.5897 3.920516314306741 19.74345399151783 3.7112366403726536 0 0 0
364 122 2 -1.1794 2.884972912150943 19.866791562236482 2.1502188842689898 0 0 0
365 122 1 0.5897 3.15142671025767 20.672266588987583 1.7069557474486508 0 0 0
370 124 2 -1.1794 3.228022247871805 23.196365583494483 3.283927177216003 0 0 0
371 124 1 0.5897 4.1822454222591405 23.126005389958955 3.2583588922638334 0 0 0
372 124 1 0.5897 2.955731202008787 22.53635504453934 3.9215304403337656 0 0 0
373 125 2 -1.1794 1.7144665689212402 21.465089846017086 4.794371089430378 0 0 0
382 128 2 -1.1794 1.3927570366741489 23.242071973640577 1.2940294082879586 0 0 0
383 128 1 0.5897 2.1322174907258016 23.130619821598934 1.8915307513992137 0 0 0
375 125 1 0.5897 1.0622359017237746 21.96835910837282 4.306983308011484 0 0 0
366 122 1 0.5897 1.9286222599420664 19.90433247070623 2.1617340039367425 0 0 0
384 128 1 0.5897 1.4735866839829852 22.51709720785917 0.6742093229735453 0 0 0
381 127 1 0.5897 5.0080716112425865 21.3955559462234 1.2997477340943 0 0 0
379 127 2 -1.1794 4.295983262784209 21.788013616559216 0.7946431019086758 0 0 0
390 130 1 0.5897 1.5838668218238772 19.718317384109017 4.9886766809929 0 0 0
363 121 1 0.5897 4.7708864294752 19.269809121497225 4.8707905689341695 0 0 0
380 127 1 0.5897 4.4864517916268865 22.72606518603329 0.800143039888457 0 0 0
459 153 1 0.5897 0.2687354735646464 23.338694308188227 2.7098879258333577 1 0 0
367 123 2 -1.1794 5.957694838869235 23.242888609920414 3.7479899695033407 0 0 0
407 136 1 0.5897 5.962275345622119 19.697049604427946 1.6012671734449648 0 0 0
376 126 2 -1.1794 0.21400253521010001 20.195955739794925 2.189317653720793 0 0 0
29 10 1 0.5897 2.300809465008459 24.612480289958725 4.256586804945531 0 -1 0
861 287 1 0.5897 4.8149634330376445 21.349868703802716 5.694953903529464 0 0 0
408 136 1 0.5897 5.70873212777655 20.404809677962408 2.915406762444389 0 0 0
385 129 2 -1.1794 4.684087688989352 24.554400997104747 0.7813168797331387 0 0 0
30 10 1 0.5897 1.7514763499191162 24.411884364992446 5.653063723710078 0 -1 0
374 125 1 0.5897 1.7134049691549225 21.854173330295342 5.668990318159071 0 0 0
748 250 2 -1.1794 1.5918531672147764 12.451615623108532 10.687256816627775 0 0 0
818 273 1 0.5897 0.254182452780768 16.79775179867811 8.647184565655252 1 0 0
737 246 1 0.5897 1.1963998654775554 13.928511563554931 7.972877204633979 0 0 0
732 244 1 0.5897 2.8956432125299836 16.24324598071747 9.856544153890026 0 0 0
725 242 1 0.5897 3.4072846061515265 14.577838577783824 7.596432425262752 0 0 0
726 242 1 0.5897 3.333572074469892 13.069624737324895 7.48776750280946 0 0 0
730 244 2 -1.1794 3.38894795080667 16.87584185719485 9.334308149421682 0 0 0
728 243 1 0.5897 5.198991019119359 16.743471806476915 9.154916268883994 0 0 0
733 245 2 -1.1794 1.6985731956592762 15.283644167128625 10.867896137642363 0 0 0
724 242 2 -1.1794 2.9912377560915457 13.810105200843877 7.988532525207383 0 0 0
742 248 2 -1.1794 1.4595682427730656 16.907185665274323 7.258898687955061 0 0 0
721 241 2 -1.1794 4.629369819952014 13.750500605350599 10.17879465539958 0 0 0
743 248 1 0.5897 1.4657069593407919 17.65802368400467 6.665180369104829 0 0 0
722 241 1 0.5897 3.887259801029287 13.851636661586927 9.582746087982128 0 0 0
731 244 1 0.5897 2.815135485867773 17.076036225803456 8.594751405079887 0 0 0
735 245 1 0.5897 0.9982802621352054 15.663469975736456 10.33728263797324 0 0 0
741 247 1 0.5897 4.563674620353231 16.536806706992436 6.421566440761673 0 0 0
744 248 1 0.5897 1.3038508224592325 16.152993592076268 6.690360522723752 0 0 0
739 247 2 -1.1794 4.532813351521731 15.59313328901682 6.579008801284204 0 0 0
723 241 1 0.5897 5.399680627709183 13.79336080525311 9.612213693172007 0 0 0
749 250 1 0.5897 1.6423891078987247 13.401797835340876 10.791445946014955 0 0 0
869 290 1 0.5897 0.9147724077754924 18.23684092577158 10.419481354384562 0 0 0
870 290 1 0.5897 2.423774374366655 18.356150246108403 10.438594341184244 0 0 0
745 249 2 -1.1794 4.642084247370218 18.322420263807928 6.406928496715036 0 0 0
736 246 2 -1.1794 0.2651005465143218 14.030631599767707 7.776897476646098 0 0 0
727 243 2 -1.1794 6.15331458775478 16.81695967871866 9.158340139622043 0 0 0
768 256 1 0.5897 5.91466953367569 14.66141085575245 7.548994569455432 0 0 0
627 209 1 0.5897 5.230184202101587 12.485430461123734 6.7295564413775075 0 0 0
939 313 1 0.5897 0.2409440001931035 23.704281983984647 9.716371241445236 1 0 0
747 249 1 0.5897 3.832137699668276 18.748157816356844 6.6878541595615975 0 0 0
864 288 1 0.5897 0.8912220942800867 23.136622866340222 7.538024851424408 0 0 0
859 287 2 -1.1794 4.626158497513424 21.757620685076972 6.5401937847955445 0 0 0
868 290 2 -1.1794 1.6271311677239269 18.776034300260854 10.7630261226887 0 0 0
888 296 1 0.5897 5.898290914408757 19.989231904403347 8.717588338623461 0 0 0
746 249 1 0.5897 5.328423125678748 18.751758924572787 6.9176499658658495 0 0 0
851 284 1 0.5897 4.164303951042839 23.311553513993328 9.205123081573829 0 0 0
850 284 2 -1.1794 3.207190154335255 23.303507622925043 9.201131215935101 0 0 0
853 285 2 -1.1794 1.78703640016156 21.511470472155843 10.617331522692014 0 0 0
866 289 1 0.5897 4.557881042109628 23.607407198837002 6.5565311978443015 0 0 0
863 288 1 0.5897 2.384572889414435 23.383973401894494 7.517894347434728 0 0 0
841 281 2 -1.1794 4.605327804036006 19.980399018213507 10.054012826283357 0 0 0
852 284 1 0.5897 2.9727281870130904 22.457187075813707 9.581965947610446 0 0 0
846 282 1 0.5897 1.9723803511620435 19.93069478215687 7.922648930891448 0 0 0
510 170 1 0.5897 2.1238883370278296 24.571863178095587 10.086265945248595 0 -1 0
887 296 1 0.5897 5.876500983019299 20.67034646521237 7.365634834474992 0 0 0
862 288 2 -1.1794 1.6410972346532862 23.193609930972876 6.945851662762465 0 0 0
845 282 1 0.5897 3.322104049497419 19.918243800707604 8.608133928133487 0 0 0
847 283 2 -1.1794 5.959431991373819 23.13766283040917 9.325198299982942 0 0 0
856 286 2 -1.1794 0.11119185117245971 20.000126215773335 7.820047132758719 0 0 0
842 281 1 0.5897 4.510065930353501 20.736975190017525 10.63264195983059 0 0 0
843 281 1 0.5897 4.713342389110205 19.236836937459685 10.647091719603864 0 0 0
860 287 1 0.5897 3.9204307654010178 21.227285334984504 6.910199661455417 0 0 0
854 285 1 0.5897 1.7138194361032406 20.558751772605433 10.560574336355415 0 0 0
844 282 2 -1.1794 2.912523324981425 19.939699602317177 7.743199127482324 0 0 0
855 285 1 0.5897 1.0560174061792174 21.83995597406891 10.093946973606542 0 0 0
865 289 2 -1.1794 4.456253084099129 24.55916430633843 6.547389808813088 0 0 0
509 170 1 0.5897 1.3762720370986687 24.488868029796322 11.40014582310901 0 -1 0
1201 401 2 -1.1794 4.6705884553695505 14.00962218805619 15.78533957586633 0 0 0
1204 402 2 -1.1794 2.9551355799228283 13.945063331815373 13.636649400373685 0 0 0
1205 402 1 0.5897 3.3321613498683424 13.996673975444816 14.515010169687129 0 0 0
1206 402 1 0.5897 3.417363240025324 13.218113659291122 13.219349778457476 0 0 0
1210 404 2 -1.1794 3.446290072576142 16.876990786314664 14.993431923233167 0 0 0
1211 404 1 0.5897 3.122592107965227 17.656646780613958 15.444677990493146 0 0 0
1212 404 1 0.5897 4.399143346394103 16.940660575436326 15.057952636354253 0 0 0
1213 405 2 -1.1794 1.542781853331909 15.233172781111127 16.4089500010595 0 0 0
1214 405 1 0.5897 0.8325510592006441 15.735390237035798 16.009498629988805 0 0 0
1215 405 1 0.5897 2.3373866180082405 15.571165143822993 15.995952006641476 0 0 0
1218 406 1 0.5897 1.2312780046507503 13.702093259574724 13.72924564027688 0 0 0
1222 408 2 -1.1794 1.5733361282038094 16.987498090286696 12.963934274125283 0 0 0
1223 408 1 0.5897 1.6514467813158316 17.719353132080574 12.351899108825682 0 0 0
1224 408 1 0.5897 2.3735059754216232 17.026248903629938 13.487807936046337 0 0 0
1229 410 1 0.5897 1.5254302174586214 13.385843565468969 16.497895899260413 0 0 0