LAMMPS data file via write_data, version 30 Jul 2021, timestep = 11000000

1920 atoms
2 atom types
1280 bonds
1 bond types
640 angles
1 angle types

-0.08890372829604587 24.81890472829605 xlo xhi
-0.10583555397133715 24.83583655396376 ylo yhi
-0.016965440407844312 22.82696544041412 zlo zhi

Masses

1 1.008
2 15.999

Pair Coeffs # lj/cut/tip4p/long/omp

1 0 0
2 0.21084 3.1668

Bond Coeffs # harmonic/omp

1 450 0.9572

Angle Coeffs # harmonic/omp

1 55 104.52

Atoms # full

1 1 2 -1.1794 4.41088716832252 1.2842713623080537 4.2282524551761025 0 0 0
2 1 1 0.5897 4.5211636006587215 2.072841820055683 4.759499843881687 0 0 0
3 1 1 0.5897 5.107351293920253 1.336557724525328 3.57375475118316 0 0 0
4 2 2 -1.1794 2.775757332470478 1.590285044667589 1.8746338561400675 0 0 0
5 2 1 0.5897 3.210731393788408 1.5059943069668473 2.7230563056600094 0 0 0
6 2 1 0.5897 1.8440133674664942 1.4949454799720843 2.072074269938807 0 0 0
10 4 2 -1.1794 3.3056578696062227 4.56096648493196 3.6142500837539853 0 0 0
11 4 1 0.5897 2.76226940752309 5.237447628285041 4.018391460491579 0 0 0
12 4 1 0.5897 3.033534682179342 4.551065362501751 2.696666632772129 0 0 0
13 5 2 -1.1794 1.4285883283489254 2.928439659641446 4.966831665575372 0 0 0
14 5 1 0.5897 2.209796755939652 3.2457855157394295 4.51383182383035 0 0 0
15 5 1 0.5897 1.5145552055414722 1.9751635805383208 4.954408269698695 0 0 0
22 8 2 -1.1794 1.665882482217164 4.441228348702287 1.2902249016754883 0 0 0
24 8 1 0.5897 1.5853424241958798 5.224100689628011 0.7453862579162137 0 0 0
23 8 1 0.5897 0.8648790206380059 4.430043908398738 1.8141068608903932 0 0 0
20 7 1 0.5897 3.7337820080532396 2.883431385150059 0.9829995218743662 0 0 0
9 3 1 0.5897 5.053502955288162 4.435433340300173 3.3177272819323256 0 0 0
21 7 1 0.5897 5.243678998675339 2.943296337790867 0.8907705948041469 0 0 0
27 9 1 0.5897 4.543982017580062 5.093955961883157 0.6851001599724186 0 0 0
19 7 2 -1.1794 4.446181241969856 3.238078224223626 0.4510971331713981 0 0 0
7 3 2 -1.1794 6.004433147759077 4.494518983148168 3.2256877535753565 0 0 0
25 9 2 -1.1794 4.416176549539225 6.004299173318231 0.9519453657934588 0 0 0
98 33 1 0.5897 0.31125056412929986 5.439502427203106 3.75074242741953 1 0 0
387 129 1 0.5897 3.722996742298831 0.17280289821534728 0.9942044893422004 0 1 0
28 10 2 -1.1794 1.544730750790139 0.09185678489992902 4.955487482144482 0 0 0
99 33 1 0.5897 0.005240967979120811 3.960738661002984 3.858662313338942 1 0 0
47 16 1 0.5897 6.071389302027508 0.5576070190604879 1.8964340903644055 0 0 0
867 289 1 0.5897 4.572732391903721 0.09493142011608705 5.593638583194338 0 1 0
16 6 2 -1.1794 0.08381782735422916 1.5056725166204645 1.8591912104911297 0 0 0
78 26 1 0.5897 12.044666295838102 1.3742976527460509 3.0579977176837527 0 0 0
8 3 1 0.5897 6.22824673503746 5.350271893924319 3.5915353263597725 0 0 0
77 26 1 0.5897 12.176867403481689 0.6976447566821143 1.710284795248983 0 0 0
46 16 2 -1.1794 6.347520478070286 1.3726544265944969 2.3155885438846915 0 0 0
31 11 2 -1.1794 10.672380672744994 1.2406449043447676 4.32989516310886 0 0 0
32 11 1 0.5897 10.464847978312216 2.102976077704234 4.689850943951914 0 0 0
34 12 2 -1.1794 9.219868721790755 1.158976354468699 2.185715160775566 0 0 0
36 12 1 0.5897 9.576225890093781 1.9096670434667118 1.7106328487478417 0 0 0
39 13 1 0.5897 11.2672697670218 4.446164811862877 3.9874319763528234 0 0 0
40 14 2 -1.1794 9.540257610262012 4.737324558732602 3.8567908623656058 0 0 0
41 14 1 0.5897 9.240874659503836 4.590446871587853 2.9596228795221835 0 0 0
42 14 1 0.5897 8.961551704222055 4.19667631770312 4.394379318294107 0 0 0
43 15 2 -1.1794 7.761316680291055 2.9786895308243224 4.951209378389599 0 0 0
45 15 1 0.5897 7.012422566995404 3.2800465904212963 4.436882071586987 0 0 0
48 16 1 0.5897 7.299136511338728 1.2963541552913989 2.3850658499278143 0 0 0
49 17 2 -1.1794 10.798235232578527 3.2010772628011566 0.8656909073974245 0 0 0
52 18 2 -1.1794 8.064787816092174 4.951466865519905 1.4135232979658046 0 0 0
53 18 1 0.5897 8.019774674866028 4.222258998542333 0.7951106860663782 0 0 0
54 18 1 0.5897 7.3681835617393805 4.773533464513279 2.045401668624143 0 0 0
35 12 1 0.5897 9.764329688999572 1.090924640480758 2.9699879221648677 0 0 0
33 11 1 0.5897 10.70840178404054 0.6642244931114784 5.093190144131346 0 0 0
59 20 1 0.5897 7.8360252239071295 1.143148454151065 5.092593222466227 0 0 0
50 17 1 0.5897 11.42953416579893 2.6522908923811648 1.3309928645401554 0 0 0
56 19 1 0.5897 10.991774145375768 5.080802595944009 0.6493345452950471 0 0 0
37 13 2 -1.1794 12.183086000260001 4.2159452311928565 3.8309040883147314 0 0 0
416 139 1 0.5897 10.222128856510281 0.08379399021104736 1.2105221059315308 0 1 0
55 19 2 -1.1794 10.968331307269192 6.0360510100877995 0.5924515974249105 0 0 0
58 20 2 -1.1794 7.589044370658535 0.22137365901614348 5.167517921474291 0 0 0
1499 500 1 0.5897 7.839461304916118 0.0338745019234751 0.17748940502062152 0 0 1
1347 449 1 0.5897 4.728150924646853 0.13744280208015117 11.033481672451444 0 1 0
508 170 2 -1.1794 1.276918767257815 0.23695143553677256 10.517824495402616 0 0 0
578 193 1 0.5897 0.24175678181050658 3.6818527217055017 9.843626533972065 1 0 0
494 165 1 0.5897 1.8620831450570188 2.05037724367241 10.649394392305716 0 0 0
504 168 1 0.5897 1.3966660935144437 3.8124488830100893 6.760804600769056 0 0 0
501 167 1 0.5897 4.569607005634408 4.320612260783687 6.424598507958101 0 0 0
499 167 2 -1.1794 4.399889206391449 3.387101890163172 6.297960530939205 0 0 0
483 161 1 0.5897 4.661716522716467 2.3212698670813023 10.640328219728122 0 0 0
492 164 1 0.5897 2.869838949336681 4.2252807097320915 9.640728196755195 0 0 0
493 165 2 -1.1794 1.8908880821646383 3.0016675721251658 10.546948838062029 0 0 0
491 164 1 0.5897 2.6339347294437436 5.034104183522311 8.383011835352436 0 0 0
485 162 1 0.5897 3.342698022835297 1.5077930547137939 8.581513421025694 0 0 0
481 161 2 -1.1794 4.566903715611598 1.7009775933582119 9.917534700410917 0 0 0
482 161 1 0.5897 5.3294208343291345 1.8618138414228977 9.361759341835697 0 0 0
502 168 2 -1.1794 1.3081497169531493 4.632120232420335 7.2471531117490615 0 0 0
500 167 1 0.5897 3.559897383458679 3.234981767897111 6.730948492831376 0 0 0
490 164 2 -1.1794 3.2527911822900064 4.919254493984332 9.10410735173151 0 0 0
503 168 1 0.5897 0.8074288344258426 4.395088325136691 8.027693382756361 0 0 0
498 166 1 0.5897 1.1628961948192928 1.571734653738622 7.794756515517489 0 0 0
484 162 2 -1.1794 2.8800257264472653 1.4911665878561824 7.7437865067086635 0 0 0
489 163 1 0.5897 5.104468736854491 4.694249802200182 9.226777176045234 0 0 0
486 162 1 0.5897 3.327626342553959 0.8144914325074035 7.235869567735199 0 0 0
487 163 2 -1.1794 6.021768994501956 4.903445143496812 9.402897827738034 0 0 0
527 176 1 0.5897 5.874936382261891 0.8254580795336672 7.254864352352918 0 0 0
528 176 1 0.5897 5.868200735402925 2.336997069870616 7.169832572767869 0 0 0
496 166 2 -1.1794 0.21580441756513885 1.7093638946034095 7.812154057367379 0 0 0
150 50 1 0.5897 1.352592818052446 5.801659378399585 5.727269355641191 0 0 0
495 165 1 0.5897 1.622682012295833 3.343158169286346 11.399932713057726 0 0 0
523 175 2 -1.1794 7.629957005768995 2.859914129047488 10.621831445424183 0 0 0
1377 459 1 0.5897 11.024511154436707 0.20983664489310871 11.362100976573602 0 1 0
44 15 1 0.5897 7.679107110762158 3.4383449301101847 5.7867325073100115 0 0 0
896 299 1 0.5897 11.116907344618808 -0.010995744759052878 7.001664222221602 0 1 0
518 173 1 0.5897 12.344808060769068 3.670301988980072 9.735932956271789 0 0 0
517 173 2 -1.1794 12.05001987669998 4.498625929168281 9.357479617647703 0 0 0
488 163 1 0.5897 6.378390206951156 4.106817867521389 9.79589966169129 0 0 0
524 175 1 0.5897 8.237897157260468 3.109691535767607 9.926001222041448 0 0 0
526 176 2 -1.1794 6.172389342275008 1.6108092122145223 7.714198541292911 0 0 0
516 172 1 0.5897 9.268259855150378 0.9560641774055847 7.179018563575056 0 0 0
531 177 1 0.5897 10.80177057981644 4.165132439017331 6.4116680208313275 0 0 0
558 186 1 0.5897 12.099382262188252 1.7198345906752375 7.4000115763225685 0 0 0
512 171 1 0.5897 9.9806376065425 1.3762375821146677 9.458950244966534 0 0 0
511 171 2 -1.1794 10.764898343482697 1.5312753549825702 9.985339974158542 0 0 0
659 220 1 0.5897 6.977369708421162 5.933327618557858 10.397081700057706 0 0 0
556 186 2 -1.1794 12.33967183516976 0.8847586198705384 7.801474154922418 0 0 0
533 178 1 0.5897 7.280428981317549 5.3567144961547495 6.589432312911656 0 0 0
530 177 1 0.5897 9.93221241624332 2.9532028054810913 6.670616301083674 0 0 0
522 174 1 0.5897 8.824174598840962 4.67985994843619 8.454683557716594 0 0 0
532 178 2 -1.1794 7.476751189728421 4.62383720116138 7.173009029969491 0 0 0
529 177 2 -1.1794 10.783723543085006 3.2126046914674578 6.318691357077768 0 0 0
520 174 2 -1.1794 9.258208410691221 4.7236415773619544 9.306635949501148 0 0 0
514 172 2 -1.1794 8.955479767219847 1.6014354689097028 7.812944259951462 0 0 0
538 180 2 -1.1794 7.583196191445418 0.15867027985028448 10.722977727689486 0 0 0
515 172 1 0.5897 8.001736410738513 1.567789804758519 7.739000845982731 0 0 0
513 171 1 0.5897 11.492267069542223 1.3948481957232213 9.378301607301065 0 0 0
521 174 1 0.5897 8.716111910545575 5.321206680839293 9.821664711099256 0 0 0
519 173 1 0.5897 11.097185549420436 4.417621751402547 9.315406324345977 0 0 0
525 175 1 0.5897 7.665177098487419 1.9034988800800146 10.639434297037463 0 0 0
534 178 1 0.5897 6.768076072110612 4.632901153712036 7.816332989561244 0 0 0
1010 337 1 0.5897 10.775985570912342 2.7013480223167985 11.276244258748026 0 0 0
535 179 2 -1.1794 10.885150785222907 6.044855377813963 6.445973828345775 0 0 0
961 321 2 -1.1794 4.530287628732113 1.7312859401005143 15.800316899086914 0 0 0
962 321 1 0.5897 5.26502588762066 1.7931769407182339 15.189987350010442 0 0 0
963 321 1 0.5897 4.642847145760238 0.8813391594284079 16.22595373360552 0 0 0
964 322 2 -1.1794 2.9506516516649195 1.430070012327871 13.373926147825733 0 0 0
965 322 1 0.5897 3.305823027365559 1.5277934444556949 14.257340361466435 0 0 0
966 322 1 0.5897 2.0036493425829396 1.51365975998244 13.485374483339362 0 0 0
970 324 2 -1.1794 3.3600708272914273 4.532791804886097 14.922646983658925 0 0 0
971 324 1 0.5897 4.2982739783441 4.416146148621967 15.072275677523088 0 0 0
972 324 1 0.5897 2.947418805924555 3.8337324811099505 15.429858780140881 0 0 0
973 325 2 -1.1794 1.6007385642398724 2.671362495609549 16.270599883065316 0 0 0
975 325 1 0.5897 0.8682667007870303 3.0295843646495775 15.769242319146805 0 0 0
982 328 2 -1.1794 1.376793322644217 4.633334292822261 12.781151093878533 0 0 0
983 328 1 0.5897 1.5569144589529769 5.325908239968233 12.145461594553979 0 0 0
984 328 1 0.5897 2.1260763203009194 4.653241391434408 13.376425705181715 0 0 0
980 327 1 0.5897 3.9251460228577066 2.7253380385855324 12.452777822225626 0 0 0
981 327 1 0.5897 5.3993934432988775 2.96267395806378 12.702039992325076 0 0 0
979 327 2 -1.1794 4.655719602868012 3.287177340968311 12.194260391078746 0 0 0
990 330 1 0.5897 1.6659059773960208 0.8390542624116363 16.22300343623146 0 0 0
986 329 1 0.5897 4.721052549854287 5.057245517119615 12.226609315361337 0 0 0
1008 336 1 0.5897 5.955299373108262 0.75986076148022 13.291309589963614 0 0 0
988 330 2 -1.1794 1.4360013880228457 -0.08492270370485823 16.124589268983275 0 0 0
985 329 2 -1.1794 4.783103508853342 6.012009922673934 12.19738238682222 0 0 0
978 326 1 0.5897 -0.05510222172396694 0.7460630298145308 13.517344015996256 0 0 0
1346 449 1 0.5897 4.024003370029589 0.3058095979995231 12.362947767785105 0 1 0
976 326 2 -1.1794 0.2574657505533749 1.6449630119438043 13.620121739156346 0 0 0
974 325 1 0.5897 1.6472691470198697 3.2206076060634894 17.053109409497154 0 0 0
1109 370 1 0.5897 0.8013661132069427 5.758479984771742 15.909765447581004 0 0 0
1110 370 1 0.5897 2.2975416186090656 5.881825136179496 15.714538141874806 0 0 0
509 170 1 0.5897 1.218096547843444 -0.08788712398704582 11.416234136706345 0 0 0
967 323 2 -1.1794 6.19944125337816 4.505379660602481 15.170904401210406 0 0 0
1376 459 1 0.5897 10.159062440760657 0.11724741078834311 12.600685073731018 0 1 0
969 323 1 0.5897 6.792972426846926 3.8732510626582135 15.57632482200163 0 0 0
1006 336 2 -1.1794 6.337549050120544 1.546626236421324 13.680059668992246 0 0 0
968 323 1 0.5897 6.518294020630345 5.3580331938658965 15.466827476620395 0 0 0
991 331 2 -1.1794 10.569411633357467 1.2710505314924814 15.67176835828023 0 0 0
992 331 1 0.5897 11.278033710882053 1.3362064789227308 15.031630590160802 0 0 0
993 331 1 0.5897 10.826451698519344 0.5459300099668135 16.241278851191602 0 0 0
994 332 2 -1.1794 9.05863236488277 1.4273815815091737 13.383243743817484 0 0 0
995 332 1 0.5897 9.52077164820026 2.029983376109443 12.800575215940993 0 0 0
998 333 1 0.5897 11.301747766706843 4.412415234265948 15.409624120485235 0 0 0
1000 334 2 -1.1794 9.413107420289135 4.584391593707479 15.150037041045813 0 0 0
1001 334 1 0.5897 9.005353067834843 3.828555244258382 15.572743169874018 0 0 0
1002 334 1 0.5897 9.071387805012545 4.572624113547443 14.256054756861873 0 0 0
1003 335 2 -1.1794 7.973065778336505 2.633203242554811 16.336700410409062 0 0 0
1004 335 1 0.5897 7.976948977011132 1.6846275484163271 16.465029566671326 0 0 0
1007 336 1 0.5897 7.278475649216314 1.4557806671979814 13.529628808561279 0 0 0
1012 338 2 -1.1794 7.986234088692031 4.619678228417422 12.883710136044467 0 0 0
1014 338 1 0.5897 7.882342254165175 3.9097222595251138 12.250170774114533 0 0 0
1011 337 1 0.5897 11.402887158965527 2.9381932243179265 12.633646127403921 0 0 0
1009 337 2 -1.1794 10.696507076001817 3.240726884791145 12.062956372992538 0 0 0
996 332 1 0.5897 9.613982981668148 1.3722649730023184 14.16086374404498 0 0 0
1013 338 1 0.5897 7.223840808500907 4.54285671596694 13.4573227993729 0 0 0
1017 339 1 0.5897 10.653818508563576 5.1852448826026265 12.292692483603478 0 0 0
1038 346 1 0.5897 12.290598008145535 0.7324734424965001 13.179551847659368 0 0 0
997 333 2 -1.1794 12.2466389322357 4.285578511436274 15.495160305061463 0 0 0
660 220 1 0.5897 7.871768890752837 5.716505291021053 11.599045513754792 0 0 0
1139 380 1 0.5897 8.560156757343838 5.858783018218895 16.229832143333372 0 0 0
540 180 1 0.5897 7.512007414288036 -0.06304671457568567 11.651355127518261 0 0 0
1456 486 2 -1.1794 0.10701142214570653 1.748951972695007 19.20743997293526 0 0 0
1468 490 2 -1.1794 1.564470371235727 0.20024882104298447 21.99955736560464 0 0 0
1538 513 1 0.5897 0.16337472294491534 4.037310027392451 20.73957899603104 1 0 0
1455 485 1 0.5897 1.223690313173353 3.408353672564967 22.77230229933874 0 0 0
386 129 1 0.5897 4.64216569678167 0.20663245224474253 22.635775611944755 0 1 -1
1590 530 1 0.5897 2.2183067428706686 6.069939185153772 21.6448977491758 0 0 0
1460 487 1 0.5897 4.488737173860736 2.681075476579403 17.153713435219966 0 0 0
1454 485 1 0.5897 2.0051692256122045 3.370425657660037 21.4763448127085 0 0 0
1464 488 1 0.5897 1.0386156298074984 4.835569247795471 18.819551379031314 0 0 0
1443 481 1 0.5897 4.306321862650828 2.1490122847884097 21.822476580647535 0 0 0
1450 484 2 -1.1794 3.426013376177936 4.473340349704364 20.657119419462873 0 0 0
1469 490 1 0.5897 1.4534030632403268 1.1159666140725784 22.25528164331172 0 0 0
1442 481 1 0.5897 3.679403600869729 1.3007992282521623 20.736526203570723 0 0 0
1453 485 2 -1.1794 1.2527827963839488 2.9770281110147794 21.91834108654694 0 0 0
1444 482 2 -1.1794 2.812506840926669 1.2534961763763222 19.19684029104143 0 0 0
1463 488 1 0.5897 1.7515217738887583 5.188383555122293 17.531553892434335 0 0 0
1452 484 1 0.5897 3.0988691248967877 4.653161120351518 19.77577855192487 0 0 0
1441 481 2 -1.1794 4.473551392272199 1.3903339492057711 21.263308740495468 0 0 0
1451 484 1 0.5897 4.363524085477766 4.320804476791271 20.538661653497606 0 0 0
1445 482 1 0.5897 1.8863228041121025 1.4651211502342194 19.31354981135733 0 0 0
1446 482 1 0.5897 3.1818622446915024 2.0232607906095454 18.764090827305886 0 0 0
1461 487 1 0.5897 5.279331827514849 2.7404244863386285 18.44332113682616 0 0 0
1459 487 2 -1.1794 4.521827708560998 3.124096854892544 18.00151999191635 0 0 0
1462 488 2 -1.1794 1.8309201602151548 4.646793837203088 18.31675142435436 0 0 0
1466 489 1 0.5897 4.489180800351462 4.988479346715955 17.91989265968135 0 0 0
1488 496 1 0.5897 6.041069285152797 0.7986680183469218 18.532435624053104 0 0 0
1447 483 2 -1.1794 6.1020566051934475 4.6316668900309725 20.79803734747377 0 0 0
1487 496 1 0.5897 5.827001891539462 1.3691595161866421 19.918205547782712 0 0 0
1539 513 1 0.5897 0.2643766591536196 5.539053684229028 20.9025995101527 1 0 0
1465 489 2 -1.1794 4.533525921967946 5.933174322752459 17.772032031988683 0 0 0
1826 609 1 0.5897 4.134065433089862 0.06008347386672028 18.240626373332034 0 1 0
51 17 1 0.5897 10.830207886637822 2.8894662556137605 22.805186481454257 0 0 -1
1471 491 2 -1.1794 11.17440061411102 1.576419822278893 21.517040819790385 0 0 0
1477 493 2 -1.1794 12.32513345004469 4.545472441793843 20.66717913528049 0 0 0
1448 483 1 0.5897 6.577932718513662 5.415800133299692 21.071769573836523 0 0 0
1490 497 1 0.5897 10.613577717939238 2.55964460141111 17.151172039209555 0 0 0
1005 335 1 0.5897 7.7513384409374195 2.9908099896391382 17.196402447926683 0 0 0
1517 506 1 0.5897 12.28367577422583 1.9716843790250982 18.619985775474504 0 0 0
1449 483 1 0.5897 6.492245675930121 3.9231656190108684 21.309896147948564 0 0 0
1518 506 1 0.5897 12.285765979747948 1.3566031401914036 20.003209998686575 0 0 0
1486 496 2 -1.1794 6.37575413101386 1.4590478944052676 19.13914830583546 0 0 0
1476 492 1 0.5897 9.444837828355995 0.6058185788350078 18.97825367081193 0 0 0
1481 494 1 0.5897 10.347629977451712 4.495451235209698 20.6898603204691 0 0 0
1475 492 1 0.5897 8.329405133971997 1.568903760620786 19.324939495322237 0 0 0
1483 495 2 -1.1794 7.908056597939426 2.9989601815936746 22.193473263020678 0 0 0
1489 497 2 -1.1794 10.867871318816018 2.971940252580247 17.976693870638947 0 0 0
1494 498 1 0.5897 7.031952824211566 4.263102681067503 19.365528868598442 0 0 0
1495 499 2 -1.1794 10.719132147585595 5.8041322612133515 18.094282148380774 0 0 0
1620 540 1 0.5897 8.32043365522772 5.832818429450884 21.36017424992342 0 0 0
1484 495 1 0.5897 8.476855560585847 3.479844332180999 21.592303989684602 0 0 0
1480 494 2 -1.1794 9.400382045243623 4.621725061199698 20.635100571584665 0 0 0
1482 494 1 0.5897 9.196828248770235 4.5111335281244305 19.706423004253733 0 0 0
1498 500 2 -1.1794 7.8227737916606 0.27696934190898376 22.095816250341702 0 0 0
1474 492 2 -1.1794 9.266372578610943 1.4189314857970112 19.45072661956828 0 0 0
1492 498 2 -1.1794 7.600784743833392 4.138018087379083 18.605971431349086 0 0 0
1496 499 1 0.5897 10.79724138306688 4.85316833910932 18.0177801505631 0 0 0
1485 495 1 0.5897 8.11372725729 2.0778889066734973 22.033469629972966 0 0 0
1473 491 1 0.5897 10.442372460537797 1.4492655548253277 20.913598922780363 0 0 0
1472 491 1 0.5897 11.134646502824715 0.8219990257879715 22.10482415787224 0 0 0
1491 497 1 0.5897 10.217664911401613 2.6649366923325966 18.6084811146525 0 0 0
1493 498 1 0.5897 7.495208668731061 4.939004777982925 18.092646384726752 0 0 0
1497 499 1 0.5897 10.795398644035556 6.12430013024152 17.195501643743352 0 0 0
121 41 2 -1.1794 4.5637981419508336 7.723139724324985 4.2319307589743556 0 0 0
122 41 1 0.5897 3.747100903800389 7.6679772855223645 3.7357937495248494 0 0 0
123 41 1 0.5897 5.249868864849073 7.7331814279775495 3.5645619531618347 0 0 0
124 42 2 -1.1794 2.7631260367828263 7.912613231897627 2.046834049733752 0 0 0
125 42 1 0.5897 3.013278619560869 7.079318967968195 1.6477224901303376 0 0 0
126 42 1 0.5897 3.402016496451038 8.541151602843891 1.710669730685109 0 0 0
129 43 1 0.5897 4.900492744559893 10.914969999840933 3.3945266450633618 0 0 0
130 44 2 -1.1794 3.0695240087474573 10.979624801530072 3.5051819483526643 0 0 0
132 44 1 0.5897 2.720944088435963 10.178399462765487 3.8960454080326388 0 0 0
133 45 2 -1.1794 1.3061634553426704 9.078092908450877 5.008077536040263 0 0 0
135 45 1 0.5897 0.6850821601732116 9.559330241642263 4.4613931075722695 0 0 0
137 46 1 0.5897 1.1494201160967132 8.068380460980798 1.8273589405759512 0 0 0
139 47 2 -1.1794 4.7230436246351015 9.419118924821953 0.9222774708254783 0 0 0
142 48 2 -1.1794 1.303787931417706 10.764674278764748 1.4481576805849978 0 0 0
143 48 1 0.5897 1.9506587833856512 11.068783839324233 2.084748468077723 0 0 0
144 48 1 0.5897 1.40046008361267 11.359912102899287 0.7048422019676234 0 0 0
149 50 1 0.5897 1.503318289566052 7.163346275562732 5.08304733843147 0 0 0
131 44 1 0.5897 2.705432809543487 11.685449352035368 4.039474010758669 0 0 0
140 47 1 0.5897 4.701076467064184 10.372899487956722 0.8441406009967192 0 0 0
168 56 1 0.5897 6.047382466589693 8.391458803755533 1.8150861739890254 0 0 0
26 9 1 0.5897 5.259860267376588 6.267275769219568 1.3197217379873811 0 0 0
127 43 2 -1.1794 5.846201664559183 10.786135337201996 3.3219226007685094 0 0 0
507 169 1 0.5897 4.643715299523926 6.6336445462681075 5.597409923185898 0 0 0
621 207 1 0.5897 4.356200980751243 8.983594503975937 5.569505701302621 0 0 0
218 73 1 0.5897 0.1295481187509833 10.820918785671186 2.7731528254417954 1 0 0
136 46 2 -1.1794 0.1976086153288209 8.109413666604691 1.9201151353594568 0 0 0
148 50 2 -1.1794 1.4654930854493105 6.229040467952446 4.878309238594177 0 0 0
145 49 2 -1.1794 4.527767136732291 12.26505374995149 0.5657242181388192 0 0 0
141 47 1 0.5897 4.719786077730577 9.104131246651036 0.018453484737095925 0 0 0
1574 525 1 0.5897 1.5107757176452388 9.628411091381269 0.051197170313372314 0 0 1
300 100 1 0.5897 8.128526706059834 11.888617033016077 4.2886725270857475 0 0 0
157 53 2 -1.1794 12.056480854026118 10.812290778556038 3.6777996292950212 0 0 0
57 19 1 0.5897 11.673357548219062 6.3282567797489895 1.1701521391307912 0 0 0
178 60 2 -1.1794 7.693927075843652 6.3248472204267925 4.93953138190156 0 0 0
166 56 2 -1.1794 6.428640519804443 7.652638416100105 2.2894413884571088 0 0 0
128 43 1 0.5897 6.22357751401764 11.44454085053585 3.9052688281593966 0 0 0
151 51 2 -1.1794 11.055243815520246 7.94572283804597 4.278521093151311 0 0 0
152 51 1 0.5897 10.29593511013818 7.724521190192787 3.7393489537335904 0 0 0
153 51 1 0.5897 11.036362519990213 7.308475687756131 4.99248286658326 0 0 0
154 52 2 -1.1794 9.301628234778619 7.841734566978348 2.2450331833605968 0 0 0
155 52 1 0.5897 9.88541066126474 8.53988993683767 1.9483295856253495 0 0 0
156 52 1 0.5897 9.753044235952881 7.0327665732449445 2.004073751304857 0 0 0
158 53 1 0.5897 11.104781114621037 10.909124467444995 3.6444076560361873 0 0 0
160 54 2 -1.1794 9.253611415958861 10.755670765921705 3.5293541879602945 0 0 0
161 54 1 0.5897 8.760952162882324 10.858430046158345 2.7151921155576644 0 0 0
162 54 1 0.5897 8.720691302602388 10.162707518442728 4.059071051187806 0 0 0
163 55 2 -1.1794 7.4670973512638446 9.071554530223972 4.805208768002534 0 0 0
164 55 1 0.5897 6.8322012195972075 9.405711368980189 4.171631550070707 0 0 0
167 56 1 0.5897 7.370653030689474 7.731150643116093 2.138869841119841 0 0 0
169 57 2 -1.1794 11.065436375944016 9.341886878059212 0.6642236662554584 0 0 0
172 58 2 -1.1794 7.77014504989075 10.801595848528367 1.2872252689505959 0 0 0
173 58 1 0.5897 7.866344198805739 10.095411493203635 0.6482832013488926 0 0 0
174 58 1 0.5897 6.942797181925982 10.613304078128362 1.7302138407641774 0 0 0
179 60 1 0.5897 7.636823119894471 7.280325741127687 4.948471273556644 0 0 0
171 57 1 0.5897 11.090183337941934 10.236273509159288 0.3240486413774895 0 0 0
299 100 1 0.5897 7.500510745979935 11.962458464061898 5.664086260400384 0 0 0
165 55 1 0.5897 7.157423263700459 9.39784560929039 5.650056704506565 0 0 0
175 59 2 -1.1794 10.928902174342912 12.12987031391699 0.4167193856760454 0 0 0
159 53 1 0.5897 12.346763565633738 10.984108135214274 2.782070761843201 0 0 0
180 60 1 0.5897 8.426652898230357 6.133687397779449 4.354083655816942 0 0 0
134 45 1 0.5897 1.472759041235132 9.659067845005715 5.750292202092366 0 0 0
698 233 1 0.5897 0.008881232849293097 11.571114734980672 9.493735562732356 1 0 0
505 169 2 -1.1794 4.766901745125163 6.137903205943402 6.406862593947583 0 0 0
628 210 2 -1.1794 1.3503461428503265 6.396794320201309 10.652753762065917 0 0 0
616 206 2 -1.1794 -0.0013571491337443647 7.506434885105051 7.6042975079597595 0 0 0
630 210 1 0.5897 1.3472645667572916 7.350304747367825 10.736944712353884 0 0 0
614 205 1 0.5897 2.3058016880626835 9.58614555814446 10.035543279163905 0 0 0
605 202 1 0.5897 2.9222657894049604 8.27084497697077 7.443448047943898 0 0 0
623 208 1 0.5897 1.9599457408669285 11.010655149766935 7.501284727156227 0 0 0
601 201 2 -1.1794 4.584267179158745 7.647353509376786 10.142560677055307 0 0 0
619 207 2 -1.1794 4.257806224360043 9.389442692960865 6.430747399292346 0 0 0
613 205 2 -1.1794 1.5219252688175033 9.325061800556835 10.518832218070926 0 0 0
622 208 2 -1.1794 1.1840872591900513 10.917140590374327 6.948572906412341 0 0 0
603 201 1 0.5897 3.8074458666756095 7.462480732688588 9.614773202460334 0 0 0
606 202 1 0.5897 1.7863062302440895 7.335411852289857 7.799077314960534 0 0 0
626 209 1 0.5897 4.335714229789475 11.373644123380808 6.41850083677215 0 0 0
611 204 1 0.5897 4.132986168967238 10.660820707327616 9.016989632366734 0 0 0
624 208 1 0.5897 1.253935290129657 11.630587785870935 6.314283868661659 0 0 0
604 202 2 -1.1794 2.73438899166577 7.439746486164444 7.8795869446895015 0 0 0
602 201 1 0.5897 4.6614841599192545 6.893963379598894 10.727935330421491 0 0 0
610 204 2 -1.1794 3.1987752359754222 10.680927591420808 8.809448491441248 0 0 0
615 205 1 0.5897 0.8079796838794373 9.798760002877822 10.092097561832986 0 0 0
612 204 1 0.5897 2.8380913322481254 11.350216899548528 9.390970207113725 0 0 0
620 207 1 0.5897 5.017927195567307 9.086148186962141 6.927158174290636 0 0 0
647 216 1 0.5897 5.776805502097517 7.592410584110714 8.795870945304507 0 0 0
607 203 2 -1.1794 5.8392864078162265 10.586687024321758 9.417042930949934 0 0 0
699 233 1 0.5897 0.10188778211740479 10.650361578375186 8.29568929339789 1 0 0
625 209 2 -1.1794 4.388768983640532 12.329057568359701 6.392928275712918 0 0 0
648 216 1 0.5897 5.931289321012819 7.361132756972099 7.307841321220494 0 0 0
506 169 1 0.5897 4.083224567505516 6.462044907735451 6.993120974998235 0 0 0
629 210 1 0.5897 2.166411822478021 6.199082675790971 10.193250235383568 0 0 0
1130 377 1 0.5897 10.601017728420981 8.853626449455271 11.288668598172086 0 0 0
652 218 2 -1.1794 7.340412233361046 10.82897865045806 6.991886764701727 0 0 0
646 216 2 -1.1794 6.19598941472587 7.950993008005193 8.013656103947916 0 0 0
658 220 2 -1.1794 7.73954402906143 6.295798980724719 10.848644688432634 0 0 0
650 217 1 0.5897 10.849212215882922 9.214250294309053 5.694659921461764 0 0 0
654 218 1 0.5897 8.2240058914477 10.935853724792272 7.344091961295684 0 0 0
637 213 2 -1.1794 12.234654282496129 10.705639886159801 9.367539714275914 0 0 0
635 212 1 0.5897 9.38640004616364 7.441322686861093 8.515238070237599 0 0 0
640 214 2 -1.1794 9.398393920847223 10.934065814807436 9.143305724009121 0 0 0
657 219 1 0.5897 10.371452376017414 11.491245792812647 6.624469156744506 0 0 0
536 179 1 0.5897 11.52306104545841 6.578519499980353 6.919769351001936 0 0 0
631 211 2 -1.1794 10.660773470802793 7.599110079298282 9.948239765355295 0 0 0
779 260 1 0.5897 8.271076986141386 11.934933099017204 10.247707795593408 0 0 0
641 214 1 0.5897 10.323177991049802 10.733674294731136 9.287670176580438 0 0 0
653 218 1 0.5897 6.800714775864402 10.62463977312318 7.755517661808109 0 0 0
537 179 1 0.5897 10.034394483060696 6.366830212527097 6.743904043844545 0 0 0
649 217 2 -1.1794 10.681217777722372 9.559542932576427 6.571402626786509 0 0 0
609 203 1 0.5897 6.419941629610741 9.851832315728348 9.614739613093585 0 0 0
642 214 1 0.5897 8.940104643452056 10.122466222907716 9.361333159095183 0 0 0
634 212 2 -1.1794 8.939449078677352 7.610786094001295 7.685991650413076 0 0 0
643 215 2 -1.1794 7.657668952483745 9.01219715806178 10.707329731527494 0 0 0
608 203 1 0.5897 6.26802244191075 11.344902041986536 9.813953860150011 0 0 0
633 211 1 0.5897 10.843658020798102 6.926278325230124 10.60402049069775 0 0 0
636 212 1 0.5897 8.034744017198523 7.799593710968816 7.9351458216890025 0 0 0
632 211 1 0.5897 11.413394646506605 7.5693469057197635 9.357602835272136 0 0 0
651 217 1 0.5897 10.00567333372942 8.984266813266988 6.930466360069214 0 0 0
645 215 1 0.5897 7.722682883899665 8.067861242509757 10.84976186360698 0 0 0
678 226 1 0.5897 12.209159835001401 8.541775402585744 7.657908833690778 0 0 0
1081 361 2 -1.1794 4.497352851270523 7.585073843030127 15.555289604198402 0 0 0
1082 361 1 0.5897 4.517656461693156 8.31643611785941 16.172460879015652 0 0 0
1083 361 1 0.5897 4.579532596616112 6.805296907456422 16.104305146941314 0 0 0
1084 362 2 -1.1794 2.766593847047412 7.538628982911838 13.351043517162028 0 0 0
1085 362 1 0.5897 3.1778902382975716 7.498066426685102 14.214357669343679 0 0 0
1086 362 1 0.5897 3.14250040557039 8.318421942857102 12.94256181954191 0 0 0
1089 363 1 0.5897 4.765363395153592 11.001253816218412 15.04683817870427 0 0 0
1090 364 2 -1.1794 2.9660000124971244 10.642214285969695 14.897131250691977 0 0 0
1091 364 1 0.5897 2.595070491896183 11.451478152557156 15.248919156074699 0 0 0
1092 364 1 0.5897 2.4835226950247815 9.94442709400635 15.340458200495611 0 0 0
1095 365 1 0.5897 0.5883635498405483 9.191672802608403 16.161921084178573 0 0 0
1097 366 1 0.5897 0.9239409805689021 7.684756634568885 13.267182154452605 0 0 0
1099 367 2 -1.1794 4.265834289524272 9.419362769693402 12.30213994751679 0 0 0
1102 368 2 -1.1794 1.3364378620494115 10.982604044665104 12.638731134020626 0 0 0
1104 368 1 0.5897 1.9909212063298107 10.759091350158743 13.30043989423277 0 0 0
1093 365 2 -1.1794 1.4159009653501817 9.061036035288996 16.62485598725033 0 0 0
1103 368 1 0.5897 1.431885036679926 10.305781924958701 11.968662718374741 0 0 0
1100 367 1 0.5897 4.889450613180698 9.045472146325885 12.924632401442842 0 0 0
1094 365 1 0.5897 1.6179292808006307 8.133968301821099 16.498344578789222 0 0 0