LAMMPS (30 Jul 2021)
  using 1 OpenMP thread(s) per MPI task
package omp 0
using multi-threaded neighbor list subroutines
echo both

include		in.partitions
variable        pid world 0
include		in.temp
variable        temperature equal 259.34
variable	tempDamp equal 100.0
include		in.pressure
variable        pressure equal 8750.0
variable        pressureDamp equal 1000.0 # This is 1 ps
include		in.seed
variable        seed world 745823

units		real
atom_style	full

read_restart	restart.lmp.${pid}
read_restart	restart.lmp.0
Reading restart file ...
  restart file = 30 Jul 2021, LAMMPS = 30 Jul 2021
  restoring atom style full from restart
  orthogonal box = (0.047410183 0.13297509 0.094971080) to (19.952591 19.867026 20.605027)
  4 by 4 by 4 MPI processor grid
  restoring pair style lj/cut/tip4p/long/omp from restart
  restoring bond style harmonic/omp from restart
  restoring angle style harmonic/omp from restart
  972 atoms
  648 bonds
  324 angles
Finding 1-2 1-3 1-4 neighbors ...
  special bond factors lj:    0        0        0       
  special bond factors coul:  0        0        0       
     2 = max # of 1-2 neighbors
     1 = max # of 1-3 neighbors
     1 = max # of 1-4 neighbors
     2 = max # of special neighbors
  special bonds CPU = 1.677 seconds
  read_restart CPU = 2.166 seconds
include 	in.setup
variable	out_freq equal 1000
variable	out_freq2 equal 10000
variable	out_freq3 equal 1000

timestep	2.0

neigh_modify    delay 7 every 1

include		in.tip4p
# This is TIP4P/Ice

# create groups ###
group ox type 2
324 atoms in group ox
group hy type 1
648 atoms in group hy

# set charges - beside manually ###
set group ox charge -1.1794
Setting atom values ...
  324 settings made for charge
set group hy charge 0.5897
Setting atom values ...
  648 settings made for charge

# ### TIP3P Potential Parameters ###
pair_style lj/cut/tip4p/long/omp 2 1 1 1 0.1577 8.5
pair_coeff 1 1*2 0.000 0.000
pair_coeff 2 2 0.21084 3.1668
bond_style  harmonic
bond_coeff  1 450 0.9572
angle_style harmonic
angle_coeff 1 55 104.52
kspace_style pppm/tip4p/omp 1.0e-5
pair_modify tail yes

thermo          ${out_freq}
thermo          1000
thermo_style    custom step temp pe etotal epair emol press lx ly lz vol pxx pyy pzz pxy pxz pyz enthalpy

restart 	${out_freq3} restart.lmp.${pid} restart2.lmp.${pid}
restart 	1000 restart.lmp.${pid} restart2.lmp.${pid}
restart 	1000 restart.lmp.0 restart2.lmp.${pid}
restart 	1000 restart.lmp.0 restart2.lmp.0


include         in.dump
dump            myDump all atom ${out_freq2} dump.water.${pid}
dump            myDump all atom 10000 dump.water.${pid}
dump            myDump all atom 10000 dump.water.0
dump            myDump2 all dcd ${out_freq2} dump.dcd
dump            myDump2 all dcd 10000 dump.dcd
dump_modify     myDump append yes
dump_modify     myDump2 append yes


variable natoms 	equal  "count(all)"                        # NUMBER ATOMS
variable H      	equal  "enthalpy/v_natoms"                 # ENTHALPY-per-atom
variable Vol      	equal  "vol/v_natoms"                 # volume-per-atom
fix AVG all 		ave/time ${out_freq} 1 ${out_freq} v_Vol v_H file vol_enthalpy.dat
fix AVG all 		ave/time 1000 1 ${out_freq} v_Vol v_H file vol_enthalpy.dat
fix AVG all 		ave/time 1000 1 1000 v_Vol v_H file vol_enthalpy.dat


timer           timeout 02:55:00 every 1000
New timer settings: style=normal  mode=nosync  timeout=02:55:00

fix 		1 all shake 1e-6 200 0 b 1 a 1
       0 = # of size 2 clusters
       0 = # of size 3 clusters
       0 = # of size 4 clusters
     324 = # of frozen angles
  find clusters CPU = 0.483 seconds
fix             2 all nph aniso ${pressure} ${pressure} ${pressureDamp}
fix             2 all nph aniso 8750 ${pressure} ${pressureDamp}
fix             2 all nph aniso 8750 8750 ${pressureDamp}
fix             2 all nph aniso 8750 8750 1000
fix             3 all temp/csvr ${temperature} ${temperature} ${tempDamp} ${seed}
fix             3 all temp/csvr 259.34 ${temperature} ${tempDamp} ${seed}
fix             3 all temp/csvr 259.34 259.34 ${tempDamp} ${seed}
fix             3 all temp/csvr 259.34 259.34 100 ${seed}
fix             3 all temp/csvr 259.34 259.34 100 745823


run             250000
PPPM initialization ...
  extracting TIP4P info from pair style
  using 12-bit tables for long-range coulomb (../kspace.cpp:340)
  G vector (1/distance) = 0.37209186
  grid = 24 24 24
  stencil order = 5
  estimated absolute RMS force accuracy = 0.0035216998
  estimated relative force accuracy = 1.0605494e-05
  using double precision FFTW3
  3d grid and FFT values/proc = 2197 216
Last active /omp style is kspace_style pppm/tip4p/omp
Neighbor list info ...
  update every 1 steps, delay 7 steps, check yes
  max neighbors/atom: 2000, page size: 100000
  master list distance cutoff = 10.8154
  ghost atom cutoff = 10.8154
  binsize = 5.4077, bins = 4 4 4
  1 neighbor lists, perpetual/occasional/extra = 1 0 0
  (1) pair lj/cut/tip4p/long/omp, perpetual
      attributes: half, newton on, omp
      pair build: half/bin/newton/omp
      stencil: half/bin/3d
      bin: standard
Per MPI rank memory allocation (min/avg/max) = 9.224 | 9.227 | 9.229 Mbytes
Step Temp PotEng TotEng E_pair E_mol Press Lx Ly Lz Volume Pxx Pyy Pzz Pxy Pxz Pyz Enthalpy 
19250000    272.66162   -4685.7611   -4159.9102   -4685.7611            0    9596.3606    19.905181    19.734051    20.510056    8056.5519    9695.6123    10082.418    9011.0522    835.26008    536.60129   -234.77267    -3032.371 
19251000    258.58455   -4701.1496   -4202.4475   -4701.1496            0    8907.4614    19.946007     20.01262    20.168992     8050.894    8716.0919    8207.0837    9799.2088   -36.550791     579.4886    371.52001   -3156.5866 
19252000    253.88139   -4691.9052   -4202.2736   -4691.9052            0     8431.664    19.851304    19.935352    20.407989    8076.3134     10020.61    7096.5131    8177.8692    795.99556    1651.6687   -1213.3359   -3209.1522 
19253000    266.87812   -4723.3426   -4208.6457   -4723.3426            0    7723.8551    19.768144    19.875379    20.637697    8108.5376    7343.6044    7803.2579     8024.703    465.69495   -1205.2279     170.5157   -3295.2635 
19254000    244.34606   -4710.5746   -4239.3327   -4710.5746            0    7345.2142     19.85086    19.828472    20.463876    8054.8317    7660.1791    6521.7184     7853.745   -138.79796    288.90732   -128.16514   -3376.4797 
19255000     263.8409   -4703.7381   -4194.8988   -4703.7381            0    8971.4744    19.989379    20.076197    20.098461    8065.7276    7769.1522    9234.8714    9910.3996    349.75262    505.35249   -240.96652    -3139.581 
19256000    267.30313   -4704.5598   -4189.0433   -4704.5598            0    9027.6301    19.737767    19.971961    20.576876    8111.4443     8661.933    9909.0162    8511.9412    31.434093    1275.6832    499.83032   -3121.1008 
19257000    257.34664   -4689.0163   -4192.7016   -4689.0163            0    8953.1587     19.77248    19.821315    20.561543    8058.4092    11106.813    8161.0932    7591.5704    -999.3352   -809.96307    898.20907   -3140.4939 
19258000    261.64055   -4701.5025   -4196.9067   -4701.5025            0    9005.1664    19.894035     19.89131    20.385575    8066.9472    7880.1227    10920.004    8215.3722   -630.90204   -396.58242   -179.58891   -3137.4655 
19259000    270.21371   -4682.1465   -4161.0167   -4682.1465            0    11478.027    19.807514    19.978273    20.286804    8027.8924    11432.751    10358.729    12642.602   -454.59207    1362.7716   -457.55681   -2817.1856 
19260000    246.48467   -4670.2439   -4194.8774   -4670.2439            0    7444.8066    20.077399    19.915113    20.492475     8193.786    5620.5074     9049.207    7664.7054    563.20316   -286.45593    768.82332   -3305.2382 
19261000    253.95541   -4686.0101   -4196.2358   -4686.0101            0    9990.1485     20.13924    19.768574    20.154314    8023.9175    8133.1587    11734.825    10102.462    982.73921    265.01815     -1287.55   -3027.1825 
19262000    263.51762   -4662.8009    -4154.585   -4662.8009            0    8396.0853    19.929806    19.959207    20.373178    8104.1066    10958.957    5213.4063    9015.8925    322.82699    -1443.553    2008.6017    -3162.251 
19263000    260.89888    -4671.439   -4168.2736    -4671.439            0    10130.816    19.759131    19.923954    20.541686    8086.8515    9897.6567    10185.895    10308.897    -421.4509     1242.029    820.22717    -2973.461 
19264000    250.89156   -4697.1637   -4213.2982   -4697.1637            0    9872.6389    19.946694    19.510049    20.636624    8030.9686    8129.4531    12450.479    9037.9848   -541.25377    1476.7577   -185.48119   -3056.9808 
19265000    259.73005   -4703.3175   -4202.4062   -4703.3175            0    10499.646     19.66532    19.903506    20.512299    8028.6944    12925.879    9018.4136    9554.6452    396.99343   -1240.8201    1295.1296   -2972.9998 
19266000    252.75551   -4683.2314   -4195.7711   -4683.2314            0    9481.1144    19.841433    19.913719    20.356461    8043.1781    8193.8308    9264.6819     10984.83    78.832391    1044.8919    46.576953   -3083.6222 
19267000    258.72737   -4706.1908   -4207.2133   -4706.1908            0    8186.1717    20.007893    19.898595    20.416066    8128.2272    9034.9451    8287.5271    7236.0429    55.658184    246.00335     874.6312   -3236.8093 
19268000    261.26272   -4747.5767   -4243.7096   -4747.5767            0    6947.1249    19.903327    19.877076    20.636026    8164.0237    8394.2797    6083.7983    6363.2968   -193.22623     1760.824    192.15386   -3416.5577 
19269000    261.00623   -4698.4956   -4195.1232   -4698.4956            0    8701.8751    19.987037    19.741291    20.421772    8057.8168    6712.7508    9146.4892    10246.385    462.10604   -845.41203    89.237404   -3172.5224 
19270000     267.8557   -4723.0699   -4206.4877   -4723.0699            0    8256.2326    20.035218    19.817121    20.330853    8072.1687     8810.315    5743.2234    10215.159   -35.691955   -321.20231    1173.2924   -3234.5285 
19271000    249.40135   -4718.2518   -4237.2603   -4718.2518            0    8215.0825    19.844074    20.022748    20.566255    8171.6497     8526.215    7447.2613    8671.7713    -217.6769    94.329274   -1157.2509   -3258.2268 
19272000    261.65275   -4700.0659   -4195.4466   -4700.0659            0    8730.5831    20.013774    19.886023    20.326168    8089.7006    7173.1107    10030.463    8988.1757   -21.105556    1905.5168   -1405.6753   -3165.4125 
19273000    244.30205     -4698.84   -4227.6829     -4698.84            0    8985.1785    19.603253    19.842501    20.703672    8053.2639    9157.4819    9013.4913    8784.5625    274.69664    -602.5953   -78.719755   -3172.3863 
19274000    267.10728   -4667.4617   -4152.3228   -4667.4617            0    9405.9654    19.831537    19.830018    20.462487    8047.0724    9367.7557    9487.8469    9362.2935    793.86349   -1392.7952   -930.82789   -3048.4547 
19275000    257.57796   -4675.0443   -4178.2835   -4675.0443            0    7733.6779    19.737112    19.892638    20.680376    8119.5957     7935.167    8310.8798     6954.987    252.95109   -602.45229   -415.75336   -3262.4925 
19276000    274.67103   -4693.6214   -4163.8953   -4693.6214            0    10062.158    19.897188    19.890799    20.290529    8030.4024    8962.3101    9449.4857    11774.679   -747.10346    377.08507   -925.38775   -2985.4638 
19277000    270.43321   -4682.1265   -4160.5733   -4682.1265            0    9911.0526    19.670035    20.029043    20.487421    8071.4698    10243.258    9938.2929    9551.6068   -381.51254    1160.9261     413.3481   -2993.9026 
19278000     260.6561   -4720.2408   -4217.5436   -4720.2408            0    8232.2622    19.925294    19.625639    20.640196    8071.2793     8822.518    8813.8451    7060.4234    12.758651    7.1436558   -493.64901   -3248.5131 
19279000    269.81114   -4720.6768   -4200.3233   -4720.6768            0    8357.3904    19.779532    19.882042    20.661078    8125.1235    8324.4418    9604.0412    7143.6882   -37.131007    1751.9817    1577.5401    -3210.001 
19280000    260.02169   -4670.8943   -4169.4206   -4670.8943            0    8862.3753    19.628627    19.819014    20.698403    8052.0935    13654.477    5872.1549    7060.4936     6.306079    -75.61655    802.46185   -3128.6984 
19281000    262.00331   -4676.7438   -4171.4484   -4676.7438            0    9338.7494    20.015419    19.612911    20.631462    8099.0993    9333.9096    11044.389    7637.9498    789.51529   -109.65098    512.51577   -3068.3828 
19282000    266.69521   -4708.2389   -4193.8947   -4708.2389            0    8149.4863    19.780616    20.175137    20.324604    8111.0744    8092.4682    7817.8203    8538.1704   -527.04629    2168.0513    1169.7719   -3229.8782 
19283000    250.88527   -4676.3805   -4192.5272   -4676.3805            0    10102.731    19.946499    19.751777    20.500304    8076.6851    10092.595    11616.757     8598.842   -457.65334   -905.03931    649.42269   -3002.5248 
19284000    255.28773   -4704.3322   -4211.9884   -4704.3322            0    10746.293    19.711339    19.693608    20.535199    7971.5053    12318.514    9322.4084    10597.956    177.56786    1099.8637     84.00941   -2962.6649 
19285000    260.13204   -4750.0568   -4248.3703   -4750.0568            0    9704.0179    19.698826    20.028068    20.272466    7998.0845    8221.6932    10453.351     10437.01   -707.45728    418.72692    1670.6243   -3116.4562 
19286000    248.93139   -4722.8989   -4242.8137   -4722.8989            0    7873.2423    19.927391    19.834602     20.52181    8111.2837    7427.1612    7921.5568     8271.009   -335.80241   -170.12613   -307.16859   -3311.4505 
19287000    254.97222   -4707.5634    -4215.828   -4707.5634            0    8383.4334    19.831154    19.954901       20.631    8164.2787    8169.1839    9264.2892    7716.8272   -168.53322   -92.634476    376.94533   -3217.6325 
19288000    282.21651   -4720.0265   -4175.7482   -4720.0265            0    9398.2099    19.942136    19.848385    20.328499      8046.41    9374.9513    9032.2082    9787.4702    169.10983    468.37007    388.31106   -3072.8811 
19289000    245.26403   -4693.9586   -4220.9463   -4693.9586            0    10162.205    19.664091    19.984495    20.443478    8033.8155    10754.495    8992.3118    10739.809   -164.00198    1762.9513   -396.08921    -3030.292 
19290000    260.04641   -4724.5198   -4222.9984   -4724.5198            0    7500.7233    19.996804    19.913348     20.46118    8147.7096    5330.8702    7050.8716    10120.428    -624.4359   -683.29719   -460.32766   -3331.7176 
19291000     268.4124   -4707.0083   -4189.3524   -4707.0083            0    9647.6447    19.823487    19.839975    20.474344    8052.5083    9914.2684    9197.8934    9830.7724    -759.4098   -114.62078   -516.39395   -3056.3564 
19292000    258.02033   -4699.8571   -4202.2432   -4699.8571            0    8404.7943    19.801249    19.833566    20.567615    8077.5063     8455.454    8689.9382    8068.9906   -273.18396    863.59834     990.2505   -3212.1404 
19293000    264.96025   -4697.2581     -4186.26   -4697.2581            0    6797.6001    20.037527    19.835695    20.630028    8199.5753    7690.5996    7542.9519     5159.249    546.94001     520.7911    619.50569   -3373.3867 
19294000     262.1846   -4738.4607   -4232.8157   -4738.4607            0    7643.9633    19.626972    20.102823    20.446856    8067.4615    9743.3815    5517.5846    7670.9238   -308.61673    1498.1427   -446.40248   -3333.4602 
19295000    245.66168    -4704.685   -4230.9058    -4704.685            0    7901.7505    19.672443    19.725708    20.799263    8071.2134    8967.8084    7811.5714    6925.8717   -397.44169   -13.068163    419.62179   -3300.7878 
19296000    252.00921   -4695.8928   -4209.8718   -4695.8928            0    8223.1565    20.013162    19.470138    20.586455    8021.6979    9348.9109    6550.2606     8770.298    218.05728   -1293.6374   -1555.4962   -3247.8593 
19297000    251.27799   -4690.3126   -4205.7019   -4690.3126            0    8426.8794    19.728277    19.924512    20.514703    8063.8431    8430.3391    9397.4761     7452.823    398.74337    792.29604    1138.4579   -3214.6766 
19298000    256.64582   -4726.9686   -4232.0055   -4726.9686            0    9958.0383    19.760197    19.821603    20.495091    8027.4925    11334.145     10514.95    8025.0201   -604.51195   -131.60357    254.61357   -3066.1907 
19299000    257.62641   -4693.4507   -4196.5965   -4693.4507            0    8551.5631     20.12295    19.985815    20.271415     8152.627    9012.7421    8040.5663    8601.3808    -260.4918    2200.0284    481.77502   -3179.8353 
19300000    250.11255   -4713.4867   -4231.1236   -4713.4867            0    7980.7529    19.968515    19.943833     20.33369    8097.8662    8752.2088    7512.2238    7677.8259    816.98451    1221.4962   -163.46465   -3288.6041 
19301000    264.04094   -4639.3673   -4130.1421   -4639.3673            0     9375.998     19.85523     19.75286    20.606211    8081.7061    5274.3118    13445.551     9408.131    -85.46206    897.21926   -310.88913   -3025.0552 
19302000    253.56656   -4722.1516   -4233.1272   -4722.1516            0    9943.9276    19.759374    19.947448    20.428385    8051.8293    9139.8985    9622.7445     11069.14    255.69277   -966.49736   -1060.0463   -3065.4349 
19303000    248.68989   -4716.3688   -4236.7494   -4716.3688            0     8078.693    19.913307    19.748142    20.581467    8093.6785    6743.1972    9623.4215    7869.4602    231.77243    131.88895   -574.17057   -3283.1567 
19304000    265.81296   -4679.3397   -4166.6971   -4679.3397            0     9358.822    19.796299    20.103019    20.200736    8039.1935    9877.0386     7619.121    10580.306    750.23713    200.12126   -727.87103    -3069.437 
19305000    258.51773   -4687.4913   -4188.9181   -4687.4913            0    9355.9378    19.847164    19.777078     20.51687    8053.2595    10226.275    9787.9198     8053.619    545.03798   -496.19246   -283.90445    -3090.077 
19306000    275.14616   -4692.5527   -4161.9102   -4692.5527            0    8101.6033    19.893317    19.713928     20.60489    8080.7316     9119.154    8095.5279    7090.1281   -270.03808   -156.95367   -1069.7093   -3207.1429 
19307000    246.63053   -4705.0608   -4229.4131   -4705.0608            0    10063.058     19.59285     19.71002    20.808343    8035.6714    11307.635    9544.3412    9337.1969    681.24231    1293.6211    316.89108    -3050.103 
19308000    253.56941   -4689.0455   -4200.0156   -4689.0455            0    8204.9598    19.953479     19.70049    20.510911    8062.7017    8735.0511     9281.022    6598.8063    1340.7643    2108.2852    397.22697   -3235.2252 
19309000    244.91925   -4686.3257   -4213.9783   -4686.3257            0    8198.1682    19.732096    19.965723     20.61902    8123.1836    8308.6076    7488.4783    8797.4188    581.72659    1061.5925   -208.37869   -3242.7553 
19310000    256.86304   -4710.8629    -4215.481   -4710.8629            0    6201.6056    19.891422    19.753418    20.750967    8153.5442    6339.3228    6859.4852    5406.0089    1186.3372      -499.75   -995.97587   -3478.0414 
19311000    253.25474   -4688.4646   -4200.0415   -4688.4646            0    7979.7386    19.894469    19.754663    20.705852    8137.5766    5481.9087    10540.097      7917.21    142.09016   -263.75831   -354.55631   -3253.0204 
19312000    275.65959   -4689.5389   -4157.9062   -4689.5389            0    7949.7483    19.778431     20.01679    20.490576    8112.2336    8306.0925    8123.4668    7419.6856    734.37384   -848.94056    210.00543   -3217.3825 
19313000    279.61556   -4689.9868   -4150.7247   -4689.9868            0    10232.819    19.916187    19.749959     20.25239    7966.1536    8530.2633     11841.93    10326.265    29.456375   -1136.9532   -649.22781   -2961.8944 
19314000    261.62399   -4717.8852   -4213.3213   -4717.8852            0    6880.2958    19.945993    19.964685    20.496343    8161.9606    6821.8575     6047.342    7771.6879   -359.48307    2176.7457     -758.723   -3394.3334 
19315000    259.23153    -4717.353   -4217.4031    -4717.353            0    9069.3287    19.790469    19.984984     20.35471    8050.5365     8818.824     6961.981    11427.181    -651.4632    1190.0135   -1647.7477    -3152.584 
19316000    267.44591   -4668.7903   -4152.9983   -4668.7903            0    8691.2573    19.924249    19.594428     20.72165    8089.8204    9687.1348    9151.5935    7235.0435    140.45133   -2308.5384   -572.62669   -3127.5887 
19317000    259.53483   -4706.9048     -4206.37   -4706.9048            0    8924.9411    19.746321    19.845885    20.500347    8033.7417    8555.5654    9747.1469     8472.111   -1.0994718    399.72021    101.90351   -3160.6893 
19318000    255.29127   -4699.3876   -4207.0369   -4699.3876            0    8947.9294    20.270446    19.599466    20.442947    8121.7769    5690.6986     11486.62    9666.4691   -101.77608    475.35658     210.3445   -3147.1745 
19319000    247.22896   -4729.4785   -4252.6767   -4729.4785            0    8752.9676    19.875083    19.999152    20.443581    8126.0124    9350.7023    7861.1767    9047.0239    53.173406   -269.60708   -516.02486   -3215.3664 
19320000    257.77315   -4686.0708   -4188.9336   -4686.0708            0    9766.4071    19.820406     19.80345    20.557583    8069.1066    10671.266    8540.2237    10087.732    533.81405     2277.126     1441.798   -3039.6263 
19321000    271.73771   -4711.8424   -4187.7734   -4711.8424            0    8980.5033    19.761759     19.85784    20.523002    8053.7567    7093.9539    9574.0194    10273.537    240.22859    554.02299    1458.3716   -3132.9613 
19322000      274.237   -4672.3879   -4143.4988   -4672.3879            0    9140.0555    19.856729    19.812928    20.614099    8109.9971    8778.5421    10489.638    8151.9865   -628.42195   -287.07435      83.1731   -3062.4497 
19323000    246.49343   -4708.9316   -4233.5483   -4708.9316            0    9977.2923    19.512536    20.040252     20.55668    8038.4046    11805.195    8185.3012    9941.3804   -298.35435    1447.8904   -145.61871   -3063.8915 
19324000    253.36435    -4716.648   -4228.0136    -4716.648            0    10064.636    19.823163    19.609185    20.814863    8091.0718    9064.9761    12190.684    8938.2491   -1265.0597   -650.34301   -840.18138   -3040.3866 
19325000    262.80132   -4714.4741   -4207.6396   -4714.4741            0    9675.2899    19.661895    19.991148    20.379024    8010.2575    9665.1745    8955.7251     10404.97     509.9845   -1990.2014    150.95204   -3077.3588 
19326000    262.84771   -4715.6339     -4208.71   -4715.6339            0    6623.9206    19.916744    19.913175    20.521521    8138.9505    7102.2934      5664.14    7105.3284   -255.46269   -430.49602    -504.8353   -3422.4623 
19327000     251.6726   -4727.3122   -4241.9404   -4727.3122            0    9454.9271    19.793076    19.754976    20.646447    8073.0035    10170.727    9049.2918    9144.7629    434.68671    22.827755   -164.75871   -3128.7506 
19328000    273.68788   -4690.9132   -4163.0831   -4690.9132            0    8417.4649    20.013859    19.792123    20.425169     8090.752     9016.822    7002.6541    9232.9185   -1102.1996    14.377453   -903.78285   -3169.8616 
19329000    250.20201   -4699.3635   -4216.8278   -4699.3635            0    8762.4762    19.832963    20.108855    20.327398    8106.9357    9186.1437    8836.0149      8265.27   -131.24596   -520.71346    599.91576   -3180.8285 
19330000    255.51535   -4685.4113   -4192.6285   -4685.4113            0    8152.7825    20.007268      19.8214    20.395041    8088.1038    7852.6137    7522.4097    9083.3242     252.6048    822.64725    639.93344   -3230.9532 
19331000    264.94192   -4710.7267   -4199.7639   -4710.7267            0    8259.5929     19.89977    19.782375    20.588872    8105.1121    10688.605    7120.4343    6969.7397    119.39538   -916.90681    1141.8187   -3223.4409 
19332000    255.41406   -4723.6601   -4231.0726   -4723.6601            0    8558.3207    19.737785    19.986488    20.453181    8068.5546    8769.1332    8367.6256    8538.2032    68.799908     1305.335   -146.18527   -3224.0013 
19333000    272.54354   -4703.2675   -4177.6444   -4703.2675            0    9334.1588     19.80843    20.026062    20.338957    8068.1558    9679.9834    8872.1716    9450.3213    344.74571   -1096.3214   -759.09325   -3079.3333 
19334000    257.76105   -4651.7587   -4154.6448   -4651.7587            0    9357.1218    19.909992     19.57073    20.669678    8054.0038     9371.205    9839.7218    8860.4386   -37.370568    -589.6208    1141.9623   -3055.5631 
19335000    259.28946   -4734.9501   -4234.8886   -4734.9501            0     8412.716    19.768689    19.922107    20.638216    8128.0298    10796.029    6727.2771    7714.8415    600.49026    798.21962    -903.4239   -3237.6538 
19336000    247.90983   -4681.7217   -4203.6067   -4681.7217            0    10644.312     19.74049    19.738242    20.532111    8000.1847    9332.9719     13026.26    9573.7045   -38.892854   -673.25305    809.93641   -2961.6871 
19337000    249.34797   -4682.0761   -4201.1876   -4682.0761            0    10825.082    19.689355    19.904126    20.428666    8005.9817    10273.435    10441.836    11759.975   -290.37227    1660.8318    1066.8343   -2937.2615 
19338000    261.30691   -4694.0451   -4190.0928   -4694.0451            0    10186.777    19.745331    19.587796    20.654031    7988.3084     11048.17    10030.239    9481.9208    330.03558    1646.3959    1012.7643   -3003.3202 
19339000     246.3722   -4727.8374   -4252.6879   -4727.8374            0    8374.0229    19.990862    19.892339    20.332475    8085.5134    6891.4313    8978.8635    9251.7741    97.911366    620.36057     1405.177   -3265.2322 
19340000    260.76011    -4722.787   -4219.8893    -4722.787            0    10163.086    20.091085    19.816811    20.308107    8085.4948    8130.6706    11038.941    11319.648    143.91353    2206.8919   -231.96812   -3021.4718 
19341000     243.2996   -4701.6031   -4232.3793   -4701.6031            0     7625.804    19.921191     19.84372      20.5711     8131.973    6666.2134    9062.7278    7148.4708    314.09411     717.2869    1221.1712   -3327.9858 
19342000    255.64774   -4708.3829   -4215.3447   -4708.3829            0    8572.3926    19.944389    20.065993    20.311438    8128.7185    8085.8921    8766.8021    8864.4837   -283.95374    15.689873    295.88083   -3199.0959 
19343000    276.05496   -4714.3557   -4181.9605   -4714.3557            0     7614.058    19.785092    19.967781    20.447378    8078.0311    7754.7613    6583.0133    8504.3994     -402.776    1913.9878   -1065.0584   -3284.9499 
19344000    254.17477   -4702.3056   -4212.1082   -4702.3056            0    7894.4113    19.848593    19.695255    20.890511    8166.5834    8440.3904    8961.4788    6281.3647    342.64698    186.27336   -446.46177    -3271.874 
19345000    239.08979   -4709.7238    -4248.619   -4709.7238            0    7939.7482    20.052569    19.740865    20.503421    8116.3826     7483.496    9646.1004    6689.6482   -84.225033   -230.29028    84.611254    -3308.798 
19346000    264.59867   -4712.8584   -4202.5576   -4712.8584            0    6900.2301    20.069049    19.882952    20.577613    8211.1252    4367.5507     8747.662    7585.4776   -884.44754   -519.66291    52.817782   -3376.2493 
19347000    262.13775   -4703.5217    -4197.967   -4703.5217            0    9142.6455    19.868513    19.831452    20.503038    8078.6371    11069.685    8794.3955    7563.8556   -154.03887   -260.19168   -538.23041    -3120.793 
19348000    256.95361   -4689.5602   -4194.0036   -4689.5602            0    9774.6757    19.899052    19.880744    20.322299    8039.6632    9875.9212    10164.538    9283.5682    487.01472    471.92715   -519.34832   -3047.9205 
19349000    257.64799    -4698.021   -4201.1251    -4698.021            0    10728.856    19.799009    19.754153    20.432476    7991.3999    9867.8573    11327.818    10990.892    16.084695   -363.57161    765.30282    -2950.716 
19350000    260.81087   -4711.1299   -4208.1342   -4711.1299            0     8504.691    19.970863    20.052238    20.361682    8154.0492    9337.6751    7644.3821    8532.0159     604.7229    925.81749    851.20824   -3196.7695 
19351000    252.38738    -4737.821   -4251.0707    -4737.821            0    7260.7751    19.976693    19.780828    20.641355    8156.5458     6583.325    7699.8781    7499.1222   -88.274448    1372.7578   -392.03883   -3387.3662 
19352000    251.35886   -4678.0028   -4193.2361   -4678.0028            0    11196.986    19.705952    19.706684    20.610484    8003.8541    11111.461    11998.833    10480.665     217.7404    320.81884    1745.1413   -2886.2342 
19353000    269.63088   -4703.3234   -4183.3176   -4703.3234            0    9192.9905    19.935351    19.971333    20.265188    8068.2914    9560.4773    9091.8064    8926.6878   -28.179985    1454.8792    237.99584    -3101.599 
19354000    262.84241   -4692.5167    -4185.603   -4692.5167            0    10264.995    19.983601    19.905709    20.270602    8063.3967    10679.694    9317.2721    10798.021    381.72672    66.824454    184.51892   -2978.4768 
19355000    269.34391   -4675.3363   -4155.8839   -4675.3363            0    8169.5262    19.955496    19.828981    20.439315    8087.7789    9093.6536    7127.2374    8287.6876   -1142.9085    745.63873    360.53402   -3192.2723 
19356000    263.83155   -4739.2552   -4230.4339   -4739.2552            0    7740.3977    20.024655    19.755175    20.325412    8040.5409    7564.7204    8338.1887    7318.2838   -165.82257    813.46653   -730.84861   -3322.7713 
19357000    254.35246   -4693.2608   -4202.7207   -4693.2608            0    7576.0218    19.559793    19.898512    20.844598    8112.9423    8695.5777    7801.9341    6230.5535    122.94694   -24.746068    1496.2885   -3306.3338 
19358000    256.95163   -4674.1495   -4178.5967   -4674.1495            0    7964.4863     19.87259    19.879798    20.569201    8126.1321    8041.2592    8129.7507    7722.4491    -438.3604    17.295497   -866.70382   -3234.7151 
19359000     258.2015   -4695.0548   -4197.0915   -4695.0548            0    8818.9329    19.903247    19.827316    20.529154    8101.3784    9208.9441    9119.4869    8128.3677   -616.03436   -1414.9211   -51.738594    -3155.132 
19360000    273.87742   -4702.7664   -4174.5708   -4702.7664            0    8120.1215     19.77974    20.020795    20.508296    8121.4109    8476.2887    8024.1712    7859.9047    95.064066   -585.55599    123.30129   -3212.8037 
19361000    262.41658    -4678.431   -4172.3386    -4678.431            0    10551.867    20.000159     19.88256    20.231956    8045.3256    11157.797    9349.1067    11148.698   -40.892702   -829.93846    2387.1605   -2934.2582 
19362000    257.58662   -4687.1892   -4190.4118   -4687.1892            0    8239.9079    19.733751    20.058592    20.316235    8041.8012    8538.4964    7701.3106    8479.9167   -1106.4039   -1462.5171    2.1483241   -3224.0237 
19363000    261.47392   -4739.5397   -4235.2653   -4739.5397            0    8910.4733    19.787681    19.851769    20.555611    8074.6647    8961.5259    8906.8583    8863.0359   -234.68979    -486.4545   -1016.3265   -3185.9617 
19364000     261.9552   -4694.1848   -4188.9822   -4694.1848            0    9409.0199    19.758432    19.837401    20.590826    8070.6964      11606.4    8109.9326    8510.7275    280.42131    381.18701   -159.89902   -3081.5139 
19365000    256.52433   -4697.0941   -4202.3654   -4697.0941            0     7912.373    20.138266    19.905145    20.127006    8068.0132    8690.1753    6109.4802    8937.4634    20.384086   -122.23109    560.42335   -3271.3663 
19366000    247.22255   -4718.5264   -4241.7369   -4718.5264            0    7141.7001    19.984004    19.734392    20.656825     8146.477     6994.263    9417.5652    5013.2721   -201.98992    483.86728   -278.35855   -3393.2458 
19367000    237.50301   -4707.8113   -4249.7668   -4707.8113            0    7804.9785    19.868946    19.928771    20.530189    8129.2091    8392.1009    8155.8381    6866.9966    70.358029   -199.88313   -1174.8742   -3324.4384 
19368000    244.06005   -4685.8165   -4215.1261   -4685.8165            0    11090.663    20.021177    19.799884    20.254238    8029.1236    10440.903     11914.02    10917.066   -81.670768    1297.6823    56.347583    -2916.448 
19369000    257.26945   -4726.4544   -4230.2887   -4726.4544            0    9236.5553    19.822124    19.989875    20.361292    8067.9947     10167.75    7634.3504     9907.566   -305.25973    697.85944    291.74304   -3143.4839 
19370000    257.69476   -4692.2923   -4195.3063   -4692.2923            0     9987.813    19.836781    19.762998    20.446457    8015.7117    7453.9646    11155.917    11353.558    401.81488     852.1536    1693.0928   -3027.7216 
19371000    256.40745   -4732.2176   -4237.7142   -4732.2176            0    8849.1414    20.000056    19.728199    20.389222    8044.8752    8535.4657    9247.5809    8764.3776   -1030.9104   -163.46378    590.00721   -3199.4776 
19372000    265.55403   -4687.7185   -4175.5752   -4687.7185            0    7348.9419    19.798336    20.126875    20.393503    8126.3752    7292.4342    5824.5861    8929.8055   -64.701224    374.97743    238.55644   -3304.6165 
19373000    262.19963    -4719.173   -4213.4989    -4719.173            0     7556.837    19.929759    19.883571    20.575711    8153.6354    8172.5569    8002.1128    6495.8414    301.78259     1545.463     293.4264   -3314.8972 
19374000    250.84265    -4692.078   -4208.3069    -4692.078            0    8380.6039    19.990898    19.795692    20.536143    8126.8428    6574.3861    10233.245    8334.1806   -260.39186    197.79965    978.29916   -3215.0237 
19375000    263.26863   -4688.0529   -4180.3173   -4688.0529            0    8349.6109    19.944951    19.767021    20.504864    8084.0888    7945.4302    9236.2417    7867.1608    -484.7876   -616.19041   -287.15152   -3195.9136 
19376000      240.896   -4686.1835   -4221.5953   -4686.1835            0     9827.756    19.378737    19.848268    20.743769    7978.7667    11918.552    8493.6358    9071.0804   -941.13396   -79.724969    1151.5993   -3078.0167 
19377000    263.16783    -4716.349   -4208.8077    -4716.349            0     9045.095    19.773436    19.801841    20.706901    8107.7962    9819.3792    9071.1872    8244.7186    86.892144    756.98691   -594.26406   -3139.2805 
19378000    254.34013   -4711.7378   -4221.2215   -4711.7378            0    8447.7629    19.640365    20.057578    20.547984     8094.635     9170.255    8304.1938    7868.8398    376.70936    606.52506    60.555908   -3223.9466 
19379000    266.10122   -4684.0463   -4170.8477   -4684.0463            0    6767.2021     19.97552    19.677068     20.83428    8189.1151    7672.6011    6980.6529    5648.3522     443.4852    31.873436   -420.47354   -3362.6418 
19380000    245.18861   -4722.2407   -4249.3738   -4722.2407            0    9549.6027    19.959263    19.808571    20.490127    8101.0682        11202     8606.584    8840.2244    486.47822    1168.3993   -960.89479   -3121.1287 
19381000    258.84327   -4755.8508   -4256.6498   -4755.8508            0    7464.5464    19.877178    19.974073    20.404347    8101.1009     5997.868    7835.6844    8560.0867    297.71445    512.47258   -1855.3433   -3374.7416 
19382000    257.98459   -4662.9274   -4165.3824   -4662.9274            0      9357.79     19.82169    19.782666    20.538835    8053.8084    7101.7142    10356.239    10615.417   -250.75766    718.65324    1346.0574   -3066.2489 
19383000    270.54728   -4701.0278   -4179.2546   -4701.0278            0     8773.644    19.906886    19.816466    20.598754    8125.8814    8589.7506    8743.3739    8987.8074   -583.64013    857.46853   -1127.6353   -3139.5108 
19384000    251.73453    -4710.736   -4225.2447    -4710.736            0    6577.9413    19.818006    20.009037    20.459087    8112.8305    5596.9331    7186.5312    6950.3597    -216.4669   -1033.2194   -1411.8272   -3446.9604 
19385000    250.35296   -4695.1269   -4212.3001   -4695.1269            0     8857.837     20.13142    19.646919    20.460674    8092.6137    6463.3545    11229.259    8880.8972    309.25409   -453.93243   -817.92961   -3166.8764 
19386000    265.05519   -4711.6363    -4200.455   -4711.6363            0    8660.7214    19.580168     20.03432    20.623229    8089.9847     10498.75    6455.6651    9027.7492    84.958938    502.83238    847.53568   -3178.6274 
19387000    256.82086   -4723.4542   -4228.1535   -4723.4542            0    6668.1431       20.066     19.94654    20.271913    8113.7778    7456.0663    5482.2277    7066.1353    341.45528    36.094844    209.16914   -3439.1047 
19388000    252.77207   -4692.2941   -4204.8019   -4692.2941            0    9820.7381    19.959722    19.725018    20.451938    8052.0484    9477.7719    11153.638    8830.8043    962.64165   -29.832285    -16.82781   -3051.5441 
19389000     245.3837   -4720.2967   -4247.0536   -4720.2967            0    9736.7748    19.577453    19.879257    20.708687    8059.5148     14283.29    7228.9557    7698.0783    73.651832    830.46939   -34.141994   -3102.5954 
19390000    266.84002   -4704.4778   -4189.8543   -4704.4778            0    7593.3288    19.685515    19.888686    20.669071    8092.3345    7492.7347    7835.3033    7451.9483    324.16123    494.06535   -217.30931   -3293.7018 
19391000    251.10421   -4692.1769   -4207.9013   -4692.1769            0    10497.026    19.871218    19.797978    20.400331    8025.6927     9513.165    9498.2711     12479.64     213.8006   -561.87032    1299.6568   -2979.2613 
19392000     258.1222   -4703.3633   -4205.5529   -4703.3633            0      8850.39     19.72071    19.996975    20.481258    8076.8775    8515.6386    9392.9682    8642.5633   -619.77183   -273.64779    -559.1628   -3163.0392 
19393000    252.76663   -4713.2014   -4225.7197   -4713.2014            0     7910.928     19.75544    20.118953    20.474121    8137.6186    10251.825    4318.9252    9162.0344    356.07704   -1161.8743    253.49833   -3286.8601 
19394000      270.376   -4724.4004   -4202.9575   -4724.4004            0     8047.644    19.907992      19.8421    20.438027     8073.355     8343.793    7220.8811    8578.2578    458.06621   -236.50426   -293.82927    -3255.415 
19395000    265.98861   -4726.0199   -4213.0385   -4726.0199            0    8007.6122    19.868123     20.01471    20.422107    8120.9472    10166.075    6159.3287    7697.4324   -451.20332    138.27197   -57.260496   -3264.6514 
19396000    254.42956   -4722.3365   -4231.6477   -4722.3365            0    7603.0666    19.751938    19.758769    20.789136    8113.4589      7000.86    8927.6493    6880.6904   -262.01923    758.42455   -573.56396   -3332.0036 
19397000    242.27097   -4709.0488   -4241.8089   -4709.0488            0     7723.799    19.879048    19.783203    20.632873    8114.3156      8185.07    8596.3846    6389.9423    140.30958    1103.7692   -862.50535   -3327.7825 
19398000     263.5957   -4726.1587   -4217.7922   -4726.1587            0    8723.4032    20.159153    19.591363    20.413191    8062.0932     6740.778    10052.254    9377.1774   -112.56478     676.8124   -805.58213   -3192.1175 
19399000    271.40453   -4711.0829   -4187.6564   -4711.0829            0    7634.8155    19.802396    19.959933    20.572145     8131.233    7011.3162    8037.7502      7855.38   -550.23412    754.77174    -842.1199   -3282.2766 
19400000    255.51022   -4706.9659    -4214.193   -4706.9659            0     8245.423    20.167759    19.735292    20.368324    8106.9315    6904.2248    8018.5881    9813.4563    746.80257   -618.18587    1086.5295    -3239.326 
19401000     272.8622   -4687.8958   -4161.6581   -4687.8958            0    8604.6671    19.688604    19.905206    20.614689    8079.0146    8413.0359    9588.6895    7812.2759   -511.46331    142.00978    948.81366   -3147.8206 
19402000     267.1397    -4697.348   -4182.1466    -4697.348            0    8285.6447    19.934602    19.729083    20.502491     8063.454    8415.9134    7519.4977    8921.5229    397.07225    1507.2192   -578.74641   -3207.7779 
19403000    243.42291   -4681.2383   -4211.7767   -4681.2383            0    8577.1316    20.122231    19.878019    20.260024    8103.8088    7143.9891    7855.1581    10732.248    640.39417    690.71579   -925.17821   -3198.0821 
19404000    263.66831   -4716.9394   -4208.4329   -4716.9394            0    7490.3187    19.916262    20.043186    20.339077    8119.0613     8612.967    6210.0819     7647.907   -230.14882   -451.56995    712.18092   -3321.5179 
19405000    255.41428   -4705.2082   -4212.6203   -4705.2082            0    8831.5863    20.008678    19.879978    20.352611       8095.7    7958.7691    9678.8149     8857.175   -910.13726    57.466679    510.85891   -3169.8972 
19406000    253.38934   -4705.3598   -4216.6771   -4705.3598            0    8935.4035    19.714634    19.779947    20.559318    8017.1969     8653.742    8610.5325    9541.9361    39.666449    317.81401   -22.755057   -3171.9266 
19407000    271.88257   -4726.0306   -4201.6822   -4726.0306            0    8372.3677    19.963037     19.90678    20.432262    8119.7769    6723.3854    8926.5504    9467.1672   -633.93007    2127.7012    153.17693    -3210.238 
19408000    246.35882   -4704.1166   -4228.9929   -4704.1166            0    10620.593     19.65138    20.035313    20.431813     8044.445    11327.762    9856.6719    10677.345   -106.07808   -427.15826   -582.23364   -2982.9851 
19409000    262.04651   -4733.1115   -4227.7327   -4733.1115            0    9137.3931    19.974004    19.728019    20.466509     8064.777    7601.3533    9861.8339     9948.992   -282.35387   -732.01243    1231.9752   -3153.0245 
19410000    263.60354   -4712.4188   -4204.0372   -4712.4188            0    8179.2369    19.664218    20.071015    20.672839    8159.1732    7909.3294    9400.1963     7228.185    644.99906   -584.32287    1287.8787   -3230.7638 
19411000     269.6562   -4754.7421   -4234.6875   -4754.7421            0    7372.0641     19.98687    19.844725    20.574354    8160.4873    7319.2914      6331.44     8465.461    198.51678   -491.33447   -967.11894   -3357.3209 
19412000    256.84466   -4694.4034   -4199.0569   -4694.4034            0    9160.2866    19.788936    19.755164    20.541995    8030.5581    8281.3234    10026.455    9173.0818   -250.97117     1254.857   -1122.9485   -3126.2275 
19413000    261.05349   -4701.0002   -4197.5366   -4701.0002            0    9576.5735    19.760487    19.910989    20.575245    8095.3478    9360.5176    10896.917    8472.2864   -351.90053   -170.76717   -849.58742   -3066.9038 
19414000    263.18142   -4710.1579   -4202.5904   -4710.1579            0    10831.129    19.832449    19.640701     20.40257     7947.274    9776.2386     11580.14    11137.009    794.98441    1871.4913   -592.55171   -2947.2318 
19415000    262.19319   -4711.4671   -4205.8055   -4711.4671            0    8500.2196    19.792327    19.975082    20.440746    8081.3174    8527.9476    8655.9585    8316.7526    393.45179   -1141.5518    1537.0022    -3203.989 
19416000    262.90609   -4677.6167   -4170.5802   -4677.6167            0    10234.606    19.729332    19.717191    20.479181    7966.5448    11764.943    9133.0207    9805.8553   -1295.3293    796.43844   -710.85084   -2981.4838 
19417000    253.95367   -4699.8957   -4210.1247   -4699.8957            0    8569.9148    20.024298    19.731483    20.621211    8147.6282    6811.6887    11504.912    7393.1439   -82.948022   -613.20633    1540.4928   -3191.8063 
19418000    263.55708   -4692.6991   -4184.4071   -4692.6991            0     5851.334     20.01222    19.935983    20.506264    8181.2461     5020.751    6603.1221     5930.129    -254.6165   -32.786609    266.94893   -3486.2547 
19419000    266.98342    -4684.202    -4169.302    -4684.202            0    10204.981    19.789649    19.991933    20.366035    8057.4822    10972.934     8306.207    11335.801   -714.48834   -392.37865     926.2727   -2970.1136 
19420000    271.74377   -4708.4399   -4184.3592   -4708.4399            0    8743.3432    19.727394    19.661777    20.695918     8027.442     7851.148    10219.225    8159.6564     13.84354   -783.14574    118.33752   -3160.7585 
19421000     266.8095   -4700.1204   -4185.5559   -4700.1204            0    8281.2571    19.896728    19.731931    20.588016    8082.8727    8632.4197    7801.5751    8409.7764   -159.63583    1027.3179   -748.09061   -3209.3579 
19422000    254.11548   -4711.4947   -4221.4116   -4711.4947            0    7695.5956    19.900539    19.849559    20.559916    8121.5148    7379.9752    8690.8584    7015.9533    26.379981   -1795.0105   -273.58549   -3309.9148 
19423000    241.70442   -4695.4692   -4229.3219   -4695.4692            0    9708.1225    19.912716    19.884029     20.37129    8065.9109    8205.7658     10686.95    10231.652    -302.1195    1081.9826    1152.1755    -3087.326 
19424000    262.51915   -4708.5643    -4202.274   -4708.5643            0    9034.8205     20.03908    19.579579    20.601241    8083.0362    8447.4409    9962.3152    8694.7055    194.48607    161.86169   -408.64745   -3137.2242 
19425000    258.43688   -4704.3367   -4205.9195   -4704.3367            0    10511.488    19.593924    20.023427    20.381224    7996.3185    11031.597    9609.7193    10893.148    87.130213   -1398.1133    1834.2893   -2980.0897 
19426000    258.34931   -4725.5315   -4227.2832   -4725.5315            0    9931.0693    20.027197    19.629424    20.448386    8038.7175    11763.753    8546.6832     9482.772   -331.32582    485.28374    845.88844   -3062.9999 
19427000     258.3906   -4698.9037   -4200.5757   -4698.9037            0    9247.3257    19.822415    19.890593    20.522171    8091.4734    9939.2083    9505.5563    8297.2126   -136.63991    166.57757    118.74963   -3109.3372 
19428000    253.28596    -4689.281   -4200.7977    -4689.281            0     9166.393    19.856904    19.675492    20.676783    8078.3023    8250.5575    10853.787    8394.8345    33.273753    58.813637    181.78424   -3120.8706 
19429000    266.91492   -4696.6901   -4181.9222   -4696.6901            0    8065.9325    20.015322    19.886592    20.420197    8127.9842    6566.6444    7879.9461    9751.2069     171.7883     654.3216    274.17955   -3225.8002 
19430000    260.80348   -4699.0709   -4196.0895   -4699.0709            0     6816.141    19.981177    20.111145    20.268459    8144.7657    6758.2952    4813.2429    8876.8848     711.8298    1053.9005    735.58633   -3386.4474 
19431000    260.75731   -4720.8091   -4217.9167   -4720.8091            0    9782.3896    19.861407    19.761432     20.59509    8083.3639    10031.904     10353.95    8961.3149     471.9486    -911.9624   -722.72257   -3064.6945 
19432000    255.32196   -4696.5448   -4204.1349   -4696.5448            0    8595.7309    19.836849    19.788649    20.536552    8061.5093    7586.6376    8951.3318    9249.2232    309.34189    667.12914    48.268908   -3193.5448 
19433000    255.93626   -4727.8756    -4234.281   -4727.8756            0    7699.4375    20.024308    19.925095    20.263919    8085.0248    7828.0445    6613.8015    8656.4664   -430.34317    1459.8767   -1141.3216   -3326.4265 
19434000    245.08209   -4708.0402   -4235.3788   -4708.0402            0    9403.0833    19.975049    19.743979    20.438614    8060.7224    9650.1296    9005.8097    9553.3106    -1011.871    924.99187    584.43344   -3129.9771 
19435000     277.3907   -4720.7395   -4185.7682   -4720.7395            0    6558.3635    19.988743    19.889853    20.525824     8160.517    5552.1551    8206.0669    5916.8685   -256.57992   -1108.5181    748.92724   -3405.2392 
19436000    267.37799   -4689.5368   -4173.8759   -4689.5368            0    9104.2254    19.725035     19.87131    20.700907    8113.9749    8956.6436    10535.786    7820.2466    190.99705   -330.93957    1115.6952   -3096.5364 
19437000    265.53491   -4729.5308   -4217.4244   -4729.5308            0    8538.6306     19.77505    20.016604    20.455306    8096.8104    8857.4116    8415.3482    8343.1319    5.8593209    100.13473    118.81682   -3209.1515 
19438000    256.98295   -4689.9496   -4194.3364   -4689.9496            0    8846.8816    20.052704    19.901531    20.309014    8104.9117    8360.7421    9375.5613    8804.3415    644.28329   -9.8528035   -765.80937   -3148.6188 
19439000    254.55888   -4723.3334   -4232.3952   -4723.3334            0    9877.5262    19.794036    19.867098    20.555039    8083.2699    11712.755    8074.3425    9845.4811    660.61816   -67.934502   -725.74814   -3067.9711 
19440000     266.9699   -4688.1488   -4173.2749   -4688.1488            0    7592.6955    19.991396    19.720532     20.58917     8117.094    8852.5612    5943.4734    7982.0518   -307.30373    283.44183   -443.75561   -3274.4554 
19441000    252.14267   -4680.3159   -4194.0376   -4680.3159            0    9604.9457    19.655437    19.998537    20.534121    8071.5518    11103.622    8408.0347    9303.1805   -409.11968    2436.1775   -290.09489   -3063.3885 
19442000    261.16126   -4699.7552   -4196.0838   -4699.7552            0    7398.4734    20.015508    19.665956    20.551523    8089.5746    8358.3352    7596.8241    6240.2608    137.65241    -112.9269    733.15311   -3323.2256 
19443000     264.5341   -4709.2628   -4199.0866   -4709.2628            0    11264.508    20.028915    19.835175    20.264533    8050.6335    9716.9596    12244.126    11832.438   -1698.4018    373.40909    1039.3426   -2876.5181 
19444000    254.30247   -4670.7111   -4180.2674   -4670.7111            0    10188.008     19.68997     19.93095    20.560135    8068.6153    9133.8901    10403.375    11026.758    1172.0757    153.12934    772.25201   -2981.4193 
19445000    263.63739   -4702.7631   -4194.3162   -4702.7631            0    8684.6084    19.615021    19.982999    20.532511    8048.0654    8992.6872    8158.2411    8902.8968    634.87376    320.94322   -656.02256   -3174.9796 
19446000     255.8317   -4699.4904   -4206.0974   -4699.4904            0    7640.9564     20.18501    19.637261    20.495628    8124.0223    6635.9894    8761.7598    7525.1201   -436.28987    202.34624    716.15623   -3300.7929 
19447000    258.88455   -4705.2264   -4205.9458   -4705.2264            0    7000.3082    19.874255    19.980695    20.453052    8121.9359    7625.7973    5294.7507    8080.3766    996.20465   -497.78587   -1028.9124   -3376.7586 
19448000     261.8995   -4690.9663   -4185.8711   -4690.9663            0    9842.0199    20.029614    19.484652    20.559086    8023.5957    10617.846    10509.834    8398.3798    363.56255    2151.7198   -88.996037   -3034.1981 
19449000    265.55319   -4684.4624   -4172.3207   -4684.4624            0     8613.044    19.827587    19.913082    20.447588    8073.2876    7641.7602    9424.2609    8773.1109   -724.05924    157.72664    187.04252   -3158.2156 
19450000    258.64519   -4722.7664   -4223.9474   -4722.7664            0    6490.2016    19.978797    19.993275     20.42942    8160.3597    7132.4963    5666.9769    6671.1316   -610.83232   -1776.0314    107.40615   -3451.5454 
19451000    259.78657   -4704.2141   -4203.1939   -4704.2141            0    8993.0917    19.873028      19.9268    20.348714    8058.2097    10292.208    6894.2852    9792.7818    239.57282   -118.31492    730.49591   -3146.3192 
19452000     262.1264   -4699.9581   -4194.4253   -4699.9581            0    8097.0265    19.989174    19.629405    20.583144    8076.3233    7331.4916    9941.1533    7018.4344   -206.92424    1216.6795   -1059.7281   -3240.7179 
19453000    246.02866    -4697.746    -4223.259    -4697.746            0    9625.6773    19.647678    19.960003    20.539447    8054.9077    11035.487    9260.9408     8580.604    824.81814   -1674.0894   -203.19272    -3092.506 
19454000     246.2611   -4694.7255   -4219.7903   -4694.7255            0    10545.949    19.794877    19.681623    20.463813    7972.6056    10255.719    10557.506    10824.622    105.99455   -496.64971    76.158216   -2993.5888 
19455000    251.14233   -4711.3192   -4226.9701   -4711.3192            0      9945.76    19.817875    19.894047    20.316905    8010.0969    10104.192    8905.7853    10827.303   -243.61432   -392.43574   -761.99346   -3065.1159 
19456000    248.40988   -4706.4819   -4227.4025   -4706.4819            0    8847.3766    19.958074    19.894246    20.283081    8053.4145    9125.4407    8343.1262    9073.5628   -703.82881    897.74133   -2350.2308   -3188.2712 
19457000    263.01393    -4716.076   -4208.8315    -4716.076            0    6761.1899    19.939326    19.865054    20.578874    8151.2053    6038.3433     7245.059    7000.1674    322.03711    -1259.985    735.34821   -3405.0818 
19458000    259.32019   -4686.2921   -4186.1713   -4686.2921            0    9224.3092    19.767202    19.793673    20.540346    8036.7295    10243.673    9187.0891    8242.1653   -287.76185    1127.0176     2041.894   -3105.0135 
19459000    267.04266   -4732.0768   -4217.0625   -4732.0768            0    6771.0162    19.597669    20.133234    20.554188    8109.9518    7214.1395    7050.4842    6048.4248   -351.31587   -843.18656   -32.851243   -3416.2184 
19460000    264.13299   -4680.1999   -4170.7973   -4680.1999            0    9503.9391     19.95038    19.765999    20.563903    8109.1529    8591.1945    10597.904     9322.719    390.08068    1383.3159    788.60688   -3046.8265 
19461000    267.48188    -4722.199   -4206.3377    -4722.199            0    9584.5503    19.865085    20.014897    20.432451    8123.8939    9667.4385    8513.5476    10572.665    436.97114   -2078.8484    405.37901    -3070.773 
19462000    259.13929   -4702.0393   -4202.2674   -4702.0393            0    8739.0339    20.051889    19.728239    20.453459    8091.1527    6902.3276    9036.3278    10278.446    842.04549     1208.408   -872.96375   -3171.0512 
19463000     287.8041   -4737.3598   -4182.3054   -4737.3598            0    8594.0519    19.759416    19.679735    20.852253    8108.6087    8226.8312    10707.661    6847.6632   -341.31095     361.8781   -381.73899   -3166.0094 
19464000    264.57539   -4710.5157   -4200.2598   -4710.5157            0     7327.102    19.955305    19.901681     20.44971    8121.4822    7046.5281     8013.768      6921.01    308.38232    272.12097    822.45132   -3332.4123 
19465000    250.58902   -4737.1223   -4253.8403   -4737.1223            0    10283.356    19.667174    19.928621     20.47815     8026.199    10751.899    10607.666    9490.5027   -504.13198   -455.44985    834.95458   -3050.1336 
19466000    245.48871   -4683.5705   -4210.1249   -4683.5705            0     9075.096    19.908648    19.703098    20.460721    8025.9644    9234.3399    9867.3204    8123.6276   -315.35979    298.09904    542.93489   -3147.8807 
19467000    240.59156   -4710.5208   -4246.5197   -4710.5208            0    7748.3729     19.78137     19.89047    20.619872    8113.1102    6797.1968    8404.6085    8043.3134    12.721327   -82.438967   -596.44332   -3329.7214 
19468000      274.148   -4713.9247   -4185.2073   -4713.9247            0    8696.9393    19.862509    19.829133    20.591489    8110.0887    9028.4288    8373.9703    8688.4189    -739.7732     849.6042   -469.97151   -3156.5565 
19469000    263.86356     -4705.72   -4196.8369     -4705.72            0    8782.7417    20.027751    19.923171    20.256308    8082.5972    9669.7744    7813.6699    8864.7809    808.79388   -677.24284   -964.72251    -3161.559 
19470000    249.48389   -4702.0458   -4220.8952   -4702.0458            0    11313.511    19.732114     19.84634     20.28683    7944.5305    11593.343    10219.647    12127.542    497.88116    1562.2956    395.55681   -2910.0798 
19471000    262.81711   -4718.6896   -4211.8247   -4718.6896            0    6981.7683    19.824472     19.87943    20.573102    8107.8432    5469.4529    9906.8003    5569.0516   -250.24479     159.2484    228.88134   -3386.2685 
19472000     253.4115   -4726.2751   -4237.5497   -4726.2751            0    7339.5446    19.843396    19.931672      20.6645    8173.0589    6520.7734    8382.5472    7115.3132    715.31683    1778.5554    1304.5794   -3362.7077 
19473000    263.25694   -4735.9885   -4228.2754   -4735.9885            0    6682.0425    19.992462    19.963084     20.42718    8152.7165    5982.1451    6463.4669    7600.5155   -548.28909    431.74205    350.70044   -3433.7872 
19474000     254.9129    -4679.145   -4187.5241    -4679.145            0     10130.72     19.69179    19.863007     20.43906    7994.4965    8378.2257    11469.333    10544.601   -543.98479   -761.14366    1903.9172   -3006.3679 
19475000    247.92597   -4706.0009   -4227.8548   -4706.0009            0    8788.8919    19.768389    19.877281    20.515721    8061.4849    10761.093    8053.0809     7552.502   -227.42189    246.94174   -1059.5113   -3194.5581 
19476000    248.44322   -4688.5794   -4209.4357   -4688.5794            0    7095.9014    19.928504    19.888179    20.519044    8132.5517    7821.3598    6732.2066    6734.1377    569.91088    87.866979    132.19178   -3367.8269 
19477000    272.13869   -4657.0725   -4132.2302   -4657.0725            0    8622.2152    19.544957    19.908828    20.745491     8072.427    10335.841    7079.0594    8451.7457    781.50427    363.81166    608.92536   -3117.1535 
19478000     259.7709   -4686.9596   -4185.9695   -4686.9596            0    8942.5927    20.028762    19.818104    20.434753    8111.2093    7399.9178    8976.3472    10451.513   -476.59607    463.91488   -1134.0694   -3128.1174 
19479000    264.10866   -4700.9714   -4191.6157   -4700.9714            0    8083.0329      19.8554    19.946482    20.576778    8149.3379    7738.0107    8681.5514    7829.5367   -102.01769   -1025.3759    996.45981   -3230.9494 
19480000    266.66252   -4680.7885   -4166.5074   -4680.7885            0    9343.1863    20.075611    19.875666    20.318953    8107.5904    8350.4222    9706.8686    9972.2681    339.06677    297.61376   -439.15177   -3061.7607 
19481000    267.03431   -4697.9817   -4182.9836   -4697.9817            0    8637.1693    19.844872    19.825998    20.571297    8093.6613    10692.782    7266.4358    7952.2898   -104.22256   -646.51705     1941.785   -3163.4715 
19482000    257.72436   -4686.8351    -4189.792   -4686.8351            0     10255.02    19.615098    19.967797    20.445663    8007.9587    9427.9389    11334.755    10002.367   -36.554647   -121.03522     1850.199   -2992.1301 
19483000    254.92567   -4706.9222   -4215.2766   -4706.9222            0    8694.8473    19.951995    19.909707    20.388706    8099.1765    10949.426    6928.4268    8206.6895     4.962155   -83.590125    800.95906   -3188.2571 
19484000    260.70994   -4680.8449   -4178.0439   -4680.8449            0    10397.586    19.783941    20.026552    20.214272    8008.9778    11525.093    8329.3061    11338.357    466.52884    1246.7233    1077.3613   -2963.5775 
19485000     243.2593   -4694.2258   -4225.0798   -4694.2258            0    8648.3132    19.941468    19.843832    20.392696    8069.6985    9022.5939    8127.4165    8794.9291    589.73766    -279.8852   -636.07471   -3207.2747 
19486000    248.17909   -4699.7318   -4221.0976   -4699.7318            0    8321.2737     19.63933    19.979711    20.576196    8073.8555    8191.4433    9440.7291    7331.6487    99.562477    419.02695    -1893.932   -3241.2767 
19487000    254.88614    -4708.037   -4216.4677    -4708.037            0    8171.5442    19.929307    19.764358    20.641994     8130.674    9709.2063     8146.221    6659.2055    678.74104    22.056173    766.73126    -3247.506 
19488000    270.99841   -4703.7327   -4181.0895   -4703.7327            0    9748.9984    19.506386    20.068409     20.55031    8044.6684    11036.878    8230.4089    9979.7082   -156.13403   -1032.6603   -202.52656   -3037.3054 
19489000    263.50653   -4704.2525    -4196.058   -4704.2525            0    9370.6161    19.945658    19.857583    20.222118    8009.4262    8580.8941    9054.1692    10476.785    596.27613   -1464.6286    442.61503   -3101.4832 
19490000    265.44653   -4720.4367   -4208.5008   -4720.4367            0    8234.2332    19.974336    19.833285    20.610194    8164.8666    9649.0023    8255.4136    6798.2837    672.12063    69.035064    661.08442   -3227.9995 
19491000    250.34508   -4718.9459   -4236.1343   -4718.9459            0    8280.2706    19.851593    19.901344    20.537379    8113.7722    7523.3331    8065.0274    9252.4514   -369.72068    1132.0886   -1400.1777   -3256.3213 
19492000    262.09001   -4707.1808   -4201.7182   -4707.1808            0    7868.0339    19.628918    20.012985    20.562392    8077.5913    10207.924    6538.6136    6857.5638   -424.96454    -1150.163    583.96062   -3274.8372 
19493000    258.60183   -4678.4436   -4179.7082   -4678.4436            0    9381.6701    19.752658    19.907206    20.440157    8037.4828    7759.0332    10725.681    9660.2957   -612.67839   -577.42312     1048.518   -3080.0034 
19494000    265.06459   -4705.5306   -4194.3313   -4705.5306            0    7309.4552      19.9274     20.12963    20.352703    8164.1039    4971.0045    7791.0005    9166.3605   -99.978169    217.68115   -31.897565   -3324.0304 
19495000    265.10342   -4668.7661   -4157.4919   -4668.7661            0    10281.367    19.646506       19.764    20.699358    8037.4268    10182.944    10779.818    9881.3388    1092.9378    253.29729    547.29659   -2952.3345 
19496000    255.39307   -4680.9047   -4188.3577   -4680.9047            0    8903.5265    19.850182    19.979674    20.438738     8106.007    6805.2649    9748.1064    10157.208    294.66831    620.69643   -1014.8994   -3135.8024 
19497000    250.93498   -4682.1734   -4198.2242   -4682.1734            0    10002.306    20.109394    19.669763    20.351884    8050.1268    6987.8572     14083.82     8935.239   -59.847892     294.3656   -1107.6157   -3023.9251 
19498000    257.85018   -4684.0205   -4186.7347   -4684.0205            0    8003.5301    19.728887    19.913149    20.615356    8099.0367     7924.226     9106.569    6979.7952   -355.11796    -851.5669    889.65279   -3241.3886 
19499000    255.44476   -4712.7643   -4220.1176   -4712.7643            0    10504.232    19.757303     19.79244    20.488834    8012.0606    10340.294    11638.619    9533.7817   -414.59143    760.16232   -207.62697   -2992.7224 
19500000    262.39049   -4666.0478   -4160.0057   -4666.0478            0    8428.3617    19.905927    19.859578    20.477576    8095.2635    7103.9094    9859.8169     8321.359   -1161.2576   -63.291029   -625.60207   -3164.9439 
Loop time of 539.409 on 64 procs for 250000 steps with 972 atoms

Performance: 80.088 ns/day, 0.300 hours/ns, 463.470 timesteps/s
99.1% CPU use with 64 MPI tasks x 1 OpenMP threads

MPI task timing breakdown:
Section |  min time  |  avg time  |  max time  |%varavg| %total
---------------------------------------------------------------
Pair    | 21.056     | 29.076     | 37.731     |  78.0 |  5.39
Bond    | 0.27157    | 0.28338    | 0.29962    |   1.3 |  0.05
Kspace  | 218.97     | 235.25     | 251.55     |  55.1 | 43.61
Neigh   | 3.1483     | 3.963      | 4.7833     |  23.5 |  0.73
Comm    | 112.09     | 126.47     | 141.98     |  65.7 | 23.45
Output  | 0.90789    | 0.90924    | 0.91151    |   0.1 |  0.17
Modify  | 134.19     | 137.14     | 139.4      |  10.9 | 25.42
Other   |            | 6.319      |            |       |  1.17

Nlocal:        15.1875 ave          20 max          11 min
Histogram: 1 5 9 10 10 13 6 7 2 1
Nghost:        2292.34 ave        2320 max        2268 min
Histogram: 6 6 6 6 7 16 5 6 4 2
Neighs:        4846.02 ave        7008 max        3244 min
Histogram: 5 5 8 13 13 6 8 2 1 3

Total # of neighbors = 310145
Ave neighs/atom = 319.07922
Ave special neighs/atom = 2.0000000
Neighbor list builds = 7676
Dangerous builds = 0

unfix		3
unfix		2
unfix		1

write_data	data.final.${pid}
write_data	data.final.0
System init for write_data ...
PPPM initialization ...
  extracting TIP4P info from pair style
  using 12-bit tables for long-range coulomb (../kspace.cpp:340)
  G vector (1/distance) = 0.37198208
  grid = 24 24 24
  stencil order = 5
  estimated absolute RMS force accuracy = 0.0035340878
  estimated relative force accuracy = 1.06428e-05
  using double precision FFTW3
  3d grid and FFT values/proc = 2197 216
Last active /omp style is kspace_style pppm/tip4p/omp
WARNING: Not all mixed pair coeffs generated from mixing. Use write_data with 'pair ij' option to store all pair coeffs. (../write_data.cpp:312)

write_restart   restart.lmp.${pid}
write_restart   restart.lmp.0
System init for write_restart ...
PPPM initialization ...
  extracting TIP4P info from pair style
  using 12-bit tables for long-range coulomb (../kspace.cpp:340)
  G vector (1/distance) = 0.37198208
  grid = 24 24 24
  stencil order = 5
  estimated absolute RMS force accuracy = 0.0035340878
  estimated relative force accuracy = 1.06428e-05
  using double precision FFTW3
  3d grid and FFT values/proc = 2197 216
Last active /omp style is kspace_style pppm/tip4p/omp
Total wall time: 0:09:03
