LAMMPS data file via write_data, version 30 Jul 2021, timestep = 25000000

972 atoms
2 atom types
648 bonds
1 bond types
324 angles
1 angle types

-0.05866263800584193 20.058663637981283 xlo xhi
0.0246261840173414 19.9753748159798 ylo yhi
-0.0511440432369632 20.751142043229464 zlo zhi

Masses

1 1.008
2 15.999

Pair Coeffs # lj/cut/tip4p/long/omp

1 0 0
2 0.21084 3.1668

Bond Coeffs # harmonic/omp

1 450 0.9572

Angle Coeffs # harmonic/omp

1 55 104.52

Atoms # full

10 4 2 -1.1794 1.0204575421536644 4.013871975799839 3.7134188463859035 0 0 0
11 4 1 0.5897 0.8645056738683732 3.194341441446406 3.24407106543849 0 0 0
12 4 1 0.5897 1.9722837465689511 4.062223041070004 3.8021589361496173 0 0 0
33 11 1 0.5897 1.670539621161698 2.100380964662678 1.4469300114299872 0 0 0
31 11 2 -1.1794 0.9183718264276372 1.8589878933784363 1.9874687933222033 0 0 0
18 6 1 0.5897 3.8725381417242732 3.169577730613706 3.691429806467283 0 0 0
4 2 2 -1.1794 3.9010606348155807 1.4061158253226147 3.402573681366938 0 0 0
16 6 2 -1.1794 3.7185566600436633 4.100058348836041 3.8548869281829714 0 0 0
23 8 1 0.5897 2.4277681953072934 1.0153586385821318 4.381279263207635 0 0 0
5 2 1 0.5897 4.079450595265051 0.8034466097846417 2.6806216795437363 0 0 0
68 23 1 0.5897 8.173638584099999 2.403677897850575 1.5393872683205128 0 0 0
34 12 2 -1.1794 5.507040355753073 2.3797505050241594 0.24934723580727286 0 0 0
29 10 1 0.5897 7.031096124183443 0.808980080133873 4.949448300045679 0 0 0
273 91 1 0.5897 7.21993641286481 0.17130689204405744 2.184878346235068 0 1 0
6 2 1 0.5897 4.665918972024501 1.3303172458338766 3.9730544042949214 0 0 0
3 1 1 0.5897 3.6743215257315853 2.48995081144289 0.2034963806190455 0 0 0
47 16 1 0.5897 7.744050714631728 3.3503253168907428 3.361257582545955 0 0 0
17 6 1 0.5897 4.088118049212666 4.542333939604005 3.090649229985309 0 0 0
69 23 1 0.5897 6.666691493090446 2.281764776901229 1.4616957311720642 0 0 0
46 16 2 -1.1794 7.971541520263466 4.05818223042107 3.9640906164058984 0 0 0
48 16 1 0.5897 7.259729832406061 4.066537903588687 4.603999466044062 0 0 0
67 23 2 -1.1794 7.4055050495377985 2.1677615872289504 2.05950840303129 0 0 0
53 18 1 0.5897 9.82273118086319 4.0773683527626 3.8949022751012903 0 0 0
58 20 2 -1.1794 8.801987830646098 0.7753225577847636 4.805851827342094 0 0 0
9 3 1 0.5897 5.048573441725212 4.292071850845436 5.048423982902447 0 0 0
32 11 1 0.5897 0.15839051956266778 2.030123151934703 1.4312703956936432 0 0 0
236 79 1 0.5897 0.8733035181532527 0.13211938957708155 1.7915552844903202 0 1 0
37 13 2 -1.1794 9.536247362441049 2.6694589321781326 0.2625202627198542 0 0 0
1 1 2 -1.1794 2.7312007007778867 2.587092221543478 0.07206448497385672 0 0 0
710 237 1 0.5897 9.379137822666738 4.56956963034202 -0.049680334646417634 0 0 1
2 1 1 0.5897 2.60095626306322 3.5280553304798596 -0.04561842398321048 0 0 0
325 109 2 -1.1794 2.70342809653035 2.285783594797727 7.339949765193831 0 0 0
326 109 1 0.5897 2.4592377862283654 1.7042324166448433 6.619936707904184 0 0 0
327 109 1 0.5897 3.648043106510691 2.164973958206767 7.436182392690366 0 0 0
355 119 2 -1.1794 0.8317262472448119 1.9131416813746016 9.143662706222102 0 0 0
356 119 1 0.5897 1.5096204585367574 2.0206799728790683 8.476484531357986 0 0 0
27 9 1 0.5897 2.4954165650261366 4.014479209076658 6.824313605708594 0 0 0
335 112 1 0.5897 1.1997467376470554 3.121259304677155 10.311266374555906 0 0 0
342 114 1 0.5897 4.304618763393532 4.814974197371892 9.894520253807281 0 0 0
329 110 1 0.5897 4.3892669436582334 0.6266662250544806 9.420814950243619 0 0 0
59 20 1 0.5897 9.009489435580733 1.479884138247858 5.419670097742486 0 0 0
358 120 2 -1.1794 5.458945356651294 2.258672491537422 7.29353245372608 0 0 0
25 9 2 -1.1794 2.4839014251863207 4.970680621487193 6.782209087048918 0 0 0
393 131 1 0.5897 7.3306768520134895 1.2314077954761595 9.128268379510887 0 0 0
362 121 1 0.5897 9.098380243890778 3.523441565623503 6.748651227989161 0 0 0
391 131 2 -1.1794 7.437983315896779 2.1824955897904434 9.116338944943127 0 0 0
360 120 1 0.5897 5.848399258282595 1.6830000496755437 6.635376417703204 0 0 0
8 3 1 0.5897 5.699230392267467 3.719980261045286 6.289915731674703 0 0 0
359 120 1 0.5897 6.00724780355698 2.1417077514431813 8.069363602615448 0 0 0
361 121 2 -1.1794 9.166441411644968 2.590044715147349 6.949551068084612 0 0 0
392 131 1 0.5897 8.031040986946019 2.3479026489278776 8.383453514599168 0 0 0
7 3 2 -1.1794 5.801482224799222 4.404501330404806 5.628684896081726 0 0 0
561 187 1 0.5897 0.7094386948629129 0.16761172406774835 8.906071225378213 0 1 0
341 114 1 0.5897 4.34863632379327 3.3648028560959946 10.326905256312854 0 0 0
328 110 2 -1.1794 4.2803034574499685 1.3157884643963822 10.076168367466128 0 0 0
357 119 1 0.5897 0.06248635231685995 2.348665065278711 8.77652244298723 0 0 0
102 34 1 0.5897 0.08165634580641523 0.9265841021094946 5.156887665192715 1 0 0
22 8 2 -1.1794 1.8958850651556693 0.8907145618243497 5.167287106391908 0 0 0
28 10 2 -1.1794 6.106751516949998 0.6746304109622103 5.158541445111716 0 0 0
649 217 2 -1.1794 2.7550890701881223 2.559412052067974 13.746011341054944 0 0 0
650 217 1 0.5897 2.5318785221327063 1.9822074219413353 13.015764041893444 0 0 0
651 217 1 0.5897 2.21580921577441 2.2469041349994128 14.472472893667046 0 0 0
348 116 1 0.5897 2.8507627893833303 0.9386307733325614 11.040315314800077 0 0 0
346 116 2 -1.1794 2.23359366941313 0.6951507591902624 11.730276981496505 0 0 0
350 117 1 0.5897 2.524703464692218 4.368647652003416 13.671225487759765 0 0 0
347 116 1 0.5897 1.370669749283056 0.8456958728879469 11.344403483428096 0 0 0
352 118 2 -1.1794 5.8858338363509874 0.7008170812509458 12.259597311571842 0 0 0
682 228 2 -1.1794 5.401971159113005 2.6117983527599185 14.257075628896287 0 0 0
332 111 1 0.5897 5.22051508934933 4.552837435495428 11.908148165519533 0 0 0
683 228 1 0.5897 4.447867806161579 2.5774744271404546 14.18858642824152 0 0 0
372 124 1 0.5897 7.638096086220104 4.280191257191607 11.598488895642765 0 0 0
331 111 2 -1.1794 5.94850183621726 4.716094830826986 12.507812654137735 0 0 0
330 110 1 0.5897 4.770364909390602 1.0033556445346612 10.836742931808624 0 0 0
382 128 2 -1.1794 8.472449104005642 0.9165783495288058 11.835638477406812 0 0 0
354 118 1 0.5897 5.669564824136241 1.2736057649211538 12.995391138588962 0 0 0
370 124 2 -1.1794 8.298925506771212 4.240416573335499 10.907153163405786 0 0 0
686 229 1 0.5897 8.787670151964145 2.3517064916469375 14.791869656114562 0 0 0
384 128 1 0.5897 9.196133435511781 0.9543617570695128 11.210282793057026 0 0 0
353 118 1 0.5897 6.7953056842750925 0.9128584222400512 12.049643305540089 0 0 0
685 229 2 -1.1794 9.171197697681151 2.5513830753770868 13.937882435583264 0 0 0
684 228 1 0.5897 5.643582661964972 3.435013243113816 13.832609099702662 0 0 0
383 128 1 0.5897 8.75679106316682 1.466976704917827 12.565327127450228 0 0 0
336 112 1 0.5897 2.217843424834725 4.071069114267276 10.905559940712239 0 0 0
340 114 2 -1.1794 4.092845591617005 4.23685346232845 10.6274471344294 0 0 0
386 129 1 0.5897 9.223905564225907 4.343228861475457 13.859385869779711 0 0 0
334 112 2 -1.1794 1.2758714221779304 3.946924101443546 10.78950678733959 0 0 0
717 239 1 0.5897 6.815396172237505 2.2407654576077665 15.512371437841578 0 0 0
680 227 1 0.5897 -0.009399858470932401 2.365912560688722 15.157690881360661 0 0 0
371 124 1 0.5897 8.03137328195318 3.500768372495296 10.361660535728413 0 0 0
653 218 1 0.5897 3.4792989265476235 0.976922485003161 17.377691402534232 0 0 0
652 218 2 -1.1794 4.324187721313274 1.161158169645243 16.967297553191262 0 0 0
664 222 2 -1.1794 4.0928705055105326 3.818945310596593 17.444505452737847 0 0 0
671 224 1 0.5897 2.281709467310683 1.56500412867049 19.464113681177057 0 0 0
666 222 1 0.5897 4.193921471835948 2.948850229445677 17.058552366656098 0 0 0
670 224 2 -1.1794 2.10389394034059 0.9485104789910047 18.75378223063686 0 0 0
665 222 1 0.5897 3.1465304638994103 3.9363450944524874 17.52724751967829 0 0 0
681 227 1 0.5897 0.9880702663368921 2.807961410451957 16.207224099081657 0 0 0
672 224 1 0.5897 1.149520928041272 0.9337133305712084 18.682143325123164 0 0 0
658 220 2 -1.1794 1.472448745628459 4.261894043303469 17.476968423165367 0 0 0
659 220 1 0.5897 0.8088700355006991 4.249621347132707 18.166708366654696 0 0 0
716 239 1 0.5897 7.568387219703143 1.107176570461477 16.175583971993003 0 0 0
654 218 1 0.5897 4.419808174424037 0.4820495860403013 16.29952730847858 0 0 0
655 219 2 -1.1794 5.8859577893809485 4.5891047349195455 19.48376662974825 0 0 0
702 234 1 0.5897 9.825841371785437 3.960860125725501 18.029700624613145 0 0 0
35 12 1 0.5897 5.602999423750434 1.7252440495685761 20.35979726216684 0 0 -1
696 232 1 0.5897 7.941873727886229 4.711769371959263 17.30986156352034 0 0 0
656 219 1 0.5897 5.280635306573023 4.245519363983751 18.82667591979602 0 0 0
677 226 1 0.5897 5.501816804466294 0.8384885845369036 18.18663033654765 0 0 0
707 236 1 0.5897 9.004890321235981 0.36858308005829105 19.313543767487374 0 0 0
694 232 2 -1.1794 8.035371207165477 4.040178580712228 17.98549096501256 0 0 0
38 13 1 0.5897 9.343645330218424 2.22772002877354 20.23774623342606 0 0 -1
695 232 1 0.5897 7.885579841294225 3.21433451126107 17.52529170923422 0 0 0
708 236 1 0.5897 7.89262885473124 1.2462060892176896 18.78016378305392 0 0 0
657 219 1 0.5897 6.755218166343073 4.380567554369318 19.141576648629954 0 0 0
676 226 2 -1.1794 6.068243687903052 0.742867376202333 18.952308160789734 0 0 0
706 236 2 -1.1794 8.83865220053858 1.2272731386322993 18.924635943946157 0 0 0
662 221 1 0.5897 4.670404594276338 4.952145713055921 16.118360215483442 0 0 0
679 227 2 -1.1794 0.7508389490358391 2.063420627669358 15.65441092165874 0 0 0
715 239 2 -1.1794 7.586401779520579 2.055739676661914 16.04858868544755 0 0 0
660 220 1 0.5897 1.1986498936321706 4.969231633039221 16.893063705495276 0 0 0
884 295 1 0.5897 0.3641782216413659 0.3362137103427954 15.58402132114457 0 1 0
36 12 1 0.5897 5.619346609169379 3.219004000321409 20.60523980412419 0 0 -1
110 37 1 0.5897 1.9522675036576231 9.047545262119014 0.658840525622443 0 0 0
20 7 1 0.5897 0.6953034568562992 5.27249053045229 2.600073535115561 0 0 0
14 5 1 0.5897 4.121580429381299 5.585989652475798 0.9764185533236645 0 0 0
114 38 1 0.5897 3.37074399330254 7.642954892512585 3.8864796800184074 0 0 0
112 38 2 -1.1794 4.153806103926894 7.897810896719181 3.3985498000120975 0 0 0
111 37 1 0.5897 3.429942453409643 9.245772460759875 0.39619978318570187 0 0 0
143 48 1 0.5897 6.016546991212711 9.075150948727897 1.101477594665348 0 0 0
141 47 1 0.5897 0.7554515155792544 7.778558781426167 2.389372516396089 0 0 0
15 5 1 0.5897 4.494788683485869 6.4737029373420825 2.144587737293337 0 0 0
19 7 2 -1.1794 0.6677350111031722 5.876486502320905 1.8580246311557682 0 0 0
140 47 1 0.5897 0.8646845707437644 9.239559089765443 2.770739035510323 0 0 0
139 47 2 -1.1794 0.7713600044233828 8.659415043755754 2.015109179605935 0 0 0
674 225 1 0.5897 1.995096301406861 5.64603873671993 0.6499760878686154 0 0 1
175 59 2 -1.1794 7.598866873978077 8.773011440334658 1.979131482648917 0 0 0
13 5 2 -1.1794 4.649627417127222 5.604605583537473 1.7745789469328623 0 0 0
113 38 1 0.5897 4.882916137274197 7.595543211269657 3.940078090484275 0 0 0
145 49 2 -1.1794 9.359478543603005 9.583798198886967 -0.007507713796582154 0 0 0
57 19 1 0.5897 7.684291937690215 5.3849682264141165 2.6965072269968315 0 0 0
55 19 2 -1.1794 7.464744292290725 6.014922267499736 2.0100652997907282 0 0 0
56 19 1 0.5897 6.5443307406028195 5.842635060165281 1.811691275053591 0 0 0
176 59 1 0.5897 7.746490938839806 7.831469930536946 2.0681418995338916 0 0 0
177 59 1 0.5897 8.150661319669114 9.033806424331567 1.2417485119171718 0 0 0
711 237 1 0.5897 8.571063165723839 5.661860121034723 0.6180034587641385 0 0 1
138 46 1 0.5897 6.983621028829519 7.308434382252571 5.038598565039021 0 0 0
166 56 2 -1.1794 8.73353768098291 7.292369621193328 4.882942779103299 0 0 0
142 48 2 -1.1794 5.233089495684176 9.121694773538808 0.5535320093261596 0 0 0
126 42 1 0.5897 4.138926472044085 9.669423670616526 3.4705341225018134 0 0 0
155 52 1 0.5897 7.898835803409852 9.858309043040675 3.309027884909374 0 0 0
132 44 1 0.5897 1.0208551191906743 7.312026832280168 5.03467192904242 0 0 0
109 37 2 -1.1794 2.5790504634229303 9.227702096565878 -0.041818161054984176 0 0 0
130 44 2 -1.1794 1.9756102452280584 7.244765062886864 5.0449135599699515 0 0 0
673 225 2 -1.1794 2.6145948295513977 5.427926582537691 -0.04636118024718172 0 0 1
167 56 1 0.5897 8.912943291268915 6.476303602139359 5.34993714140365 0 0 0
62 21 1 0.5897 8.548001815572134 5.332372149911828 7.352741467010437 0 0 0
468 156 1 0.5897 4.616474446821233 9.044460586514193 7.262510474597551 0 0 0
437 146 1 0.5897 4.193022239961233 7.385818383219392 9.708837250711705 0 0 0
463 155 2 -1.1794 0.8523713966437364 8.415916778181593 8.817074520715922 0 0 0
465 155 1 0.5897 0.047728170654010985 8.680711613384181 8.371405357062166 0 0 0
26 9 1 0.5897 1.8369860064298393 5.231981825440682 7.437537600721002 0 0 0
464 155 1 0.5897 1.5541951950905044 8.679768930487405 8.22207360608446 0 0 0
343 115 2 -1.1794 0.6272191275025012 5.659559663861078 8.625854532108452 0 0 0
337 113 2 -1.1794 4.562491631727862 5.880468842646663 8.641063864216841 0 0 0
435 145 1 0.5897 2.5503297204646 8.42541147031328 6.31367871356825 0 0 0
433 145 2 -1.1794 2.789593469940718 9.006792518877727 7.035477708556003 0 0 0
339 113 1 0.5897 4.060369855083418 5.569172763754298 7.8879281783640245 0 0 0
345 115 1 0.5897 0.7925550666063079 6.5909619552622605 8.772081080395361 0 0 0
470 157 1 0.5897 8.755627383125201 8.8360634345769 7.577857157853413 0 0 0
380 127 1 0.5897 7.58808319806511 6.6812547424741755 8.976908870841433 0 0 0
466 156 2 -1.1794 5.5727174572946705 9.06691192102805 7.298141555199791 0 0 0
131 44 1 0.5897 2.1498222380186593 6.344238854537789 5.318647833366736 0 0 0
338 113 1 0.5897 5.477068314327395 5.754233729723396 8.388456989738591 0 0 0
469 157 2 -1.1794 9.23008450335881 9.150306502797084 6.808206312711155 0 0 0
61 21 2 -1.1794 9.216016023725086 5.280436488906546 6.669158897561397 0 0 0
344 115 1 0.5897 0.9661172684347468 5.2295051145364875 9.410985261048873 0 0 0
467 156 1 0.5897 5.852819401566468 8.472142156952392 6.602413041796131 0 0 0
438 146 1 0.5897 4.200876510066401 8.801192431558997 10.246004000703387 0 0 0
500 167 1 0.5897 7.82279140285296 9.263770879722133 9.59470848383547 0 0 0
379 127 2 -1.1794 7.423620650863075 5.757617775090078 8.786987972197686 0 0 0
501 167 1 0.5897 6.834570941793726 8.775371700744797 8.557025811966572 0 0 0
499 167 2 -1.1794 7.693530462702853 8.583842255380377 8.933469441693514 0 0 0
381 127 1 0.5897 7.622670705567752 5.304960838700069 9.606575176617728 0 0 0
168 56 1 0.5897 8.793532929858081 7.971498122786513 5.554816044360781 0 0 0
137 46 1 0.5897 5.93984402422413 6.388867743316744 5.635856559230612 0 0 0
136 46 2 -1.1794 6.072450087814611 7.2864473832062115 5.330939353227466 0 0 0
443 148 1 0.5897 1.0245332248976604 9.784255933844197 10.080913378121124 0 0 0
434 145 1 0.5897 2.5401031070398967 9.880021117382395 6.733084530862924 0 0 0
793 265 2 -1.1794 9.249066660730884 9.467845463417072 14.204660099043783 0 0 0
792 264 1 0.5897 4.706701456212835 9.019272178343087 14.412151767270217 0 0 0
351 117 1 0.5897 3.4484579073955315 5.382595926289054 14.311896897051332 0 0 0
456 152 1 0.5897 2.1345463018489768 6.615432854659821 12.632563834886998 0 0 0
454 152 2 -1.1794 2.007645942883681 7.462016001187314 12.204317148052606 0 0 0
757 253 2 -1.1794 2.8495452737652913 9.312564364378652 14.080801751401886 0 0 0
759 253 1 0.5897 2.6629062964407386 8.695295851736502 13.373413707962849 0 0 0
455 152 1 0.5897 2.695051934448038 7.500019167104485 11.539316567119181 0 0 0
668 223 1 0.5897 1.4517518478571005 5.882621755083153 14.929410399472983 0 0 0
491 164 1 0.5897 9.556179734941727 7.667609651856544 11.496512436782776 0 0 0
349 117 2 -1.1794 2.662274684899534 5.310671073089461 13.770647477260953 0 0 0
790 264 2 -1.1794 5.615758618929944 8.88226625534846 14.145614409059785 0 0 0
385 129 2 -1.1794 9.367927568549929 5.261289785696249 14.088820266246529 0 0 0
462 154 1 0.5897 5.627042518244496 7.521640136276416 11.398764073161441 0 0 0
492 164 1 0.5897 8.21670705798437 7.325793787567532 12.113595348595265 0 0 0
794 265 1 0.5897 9.248734663862063 8.786318011385305 13.532522648285969 0 0 0
387 129 1 0.5897 9.458963821817065 5.707613607701192 13.2469358370474 0 0 0
461 154 1 0.5897 6.206866888271137 7.89104787664268 12.747565956711378 0 0 0
533 178 1 0.5897 0.21576659700385326 7.448718018950685 11.947950593866905 1 0 0
490 164 2 -1.1794 9.14523123664558 7.4217470905839065 12.325320964052302 0 0 0
333 111 1 0.5897 6.066822822417649 5.6657580890226225 12.488701827562528 0 0 0
460 154 2 -1.1794 6.4101464846266065 7.419683774069371 11.939635279313302 0 0 0
791 264 1 0.5897 6.101091946119812 8.824899757242465 14.968657945834531 0 0 0
705 235 1 0.5897 8.075400031423673 5.7819586283170565 15.40385027271163 0 0 0
789 263 1 0.5897 1.3831267898484096 9.269038701615127 15.300135450346081 0 0 0
661 221 2 -1.1794 4.856170859902374 5.629669896949693 15.468211883031744 0 0 0
824 275 1 0.5897 8.07020161008484 9.05685094125766 15.520363473949788 0 0 0
436 146 2 -1.1794 4.132292906508889 7.887204833780825 10.521966734192834 0 0 0
667 223 2 -1.1794 0.7094850637466632 6.051964437169038 15.509565765207274 0 0 0
858 286 1 0.5897 0.42661364722095396 7.17569989851732 18.846730199969485 1 0 0
815 272 1 0.5897 8.778287454582273 6.714808614712486 19.389973799111907 0 0 0
786 262 1 0.5897 6.648003588839182 7.580948349177042 19.13518422119382 0 0 0
797 266 1 0.5897 9.970696819146486 7.89445679761474 17.917725703239267 0 0 0
788 263 1 0.5897 0.6838797332494243 9.537430529148173 16.615795252221425 0 0 0
761 254 1 0.5897 4.424231635896233 8.835331884444578 17.19892226197261 0 0 0
778 260 2 -1.1794 2.224259818069177 7.360909604281472 18.788912609668802 0 0 0
675 225 1 0.5897 2.42585797499434 6.058191518874589 20.06066456417991 0 0 0
779 260 1 0.5897 2.317624304483552 8.053708962423608 19.442792246673744 0 0 0
760 254 2 -1.1794 4.501501474011681 7.88842479853024 17.082225569858036 0 0 0
780 260 1 0.5897 2.934094415678049 7.520662751544833 18.16695042182956 0 0 0
703 235 2 -1.1794 7.53613523529578 6.089341626363335 16.13250021154474 0 0 0
663 221 1 0.5897 4.547597017535287 6.440807295603318 15.872025492878768 0 0 0
762 254 1 0.5897 5.075823322978604 7.605026438852789 17.79361693516325 0 0 0
785 262 1 0.5897 5.749692294345588 6.391566821974132 19.400236574303214 0 0 0
709 237 2 -1.1794 9.236642592392089 5.5160906756750645 20.74799123197241 0 0 0
823 275 2 -1.1794 7.491523041845902 8.843311273677056 16.25232766529018 0 0 0
825 275 1 0.5897 7.511585397227123 7.88767759038483 16.303231592793264 0 0 0
816 272 1 0.5897 8.85734448533544 8.188626514127785 19.72686909596409 0 0 0
814 272 2 -1.1794 8.553629168402018 7.581672037010568 19.051880889862666 0 0 0
784 262 2 -1.1794 5.740870415596117 7.346187825720665 19.330598881104876 0 0 0
787 263 2 -1.1794 0.6435895365622012 8.983203796962545 15.836411636009364 0 0 0
144 48 1 0.5897 5.41928859419633 8.537614622552693 20.620685771155372 0 0 -1
704 235 1 0.5897 6.635600214975116 5.943677958870665 15.84268502176956 0 0 0
669 223 1 0.5897 0.7816803072641297 6.98143582902957 15.726591908011837 0 0 0
120 40 1 0.5897 1.0726944031875256 11.299986688952007 3.0163299193196975 0 0 0
129 43 1 0.5897 0.9601719617801614 13.561779541625276 2.0878642856973126 0 0 0
118 40 2 -1.1794 1.154287281857962 10.667249044096527 3.7299263438681107 0 0 0
119 40 1 0.5897 2.0975997656491017 10.580730947418473 3.8672437257478474 0 0 0
240 80 1 0.5897 2.43215869284495 13.918936230819373 4.5115077047682846 0 0 0
127 43 2 -1.1794 0.8846326041890492 12.656230043977507 1.787036378479979 0 0 0
123 41 1 0.5897 3.9670619261216036 12.36471837655172 0.9208849070817633 0 0 0
222 74 1 0.5897 4.161511745058425 13.696473113351587 2.7648014407009414 0 0 0
124 42 2 -1.1794 3.952451551064189 10.583664387009918 3.684117664783728 0 0 0
125 42 1 0.5897 4.620645365224636 10.821017778169391 4.32708553929156 0 0 0
220 74 2 -1.1794 3.932912501948432 14.365554122031051 3.409992523476184 0 0 0
122 41 1 0.5897 4.3987313216796196 11.668488990825198 2.1940263652671863 0 0 0
128 43 1 0.5897 -0.02486649649577899 12.573660621847198 1.5003441245317295 0 0 0
121 41 2 -1.1794 4.690106855704585 12.309598728486481 1.545701012830497 0 0 0
783 261 1 0.5897 2.0172705648484257 12.311050761567152 0.42854639419095414 0 0 1
246 82 1 0.5897 5.342124702900504 14.123007800083913 4.336133346535273 0 0 0
154 52 2 -1.1794 8.111123113121213 10.628899383487001 3.8356650654542244 0 0 0
276 92 1 0.5897 9.411316459052319 14.148992433828926 4.299057329600145 0 0 0
165 55 1 0.5897 7.687360636205111 11.889979497724784 2.5762639946925114 0 0 0
163 55 2 -1.1794 7.452150657601436 12.506230714025092 1.8826060904067103 0 0 0
819 273 1 0.5897 8.451303640704383 12.409258433770187 0.44503038502209114 0 0 1
164 55 1 0.5897 6.553613172018495 12.273200643291508 1.6490979247054038 0 0 0
156 52 1 0.5897 9.057095563135272 10.573921698658312 3.9709600141550663 0 0 0
275 92 1 0.5897 7.9750333450561985 13.961992054991484 4.739373917015911 0 0 0
285 95 1 0.5897 7.404216359674524 14.380768393664852 1.8075457906700296 0 0 0
274 92 2 -1.1794 8.877662345422834 13.883976570278152 5.048191048304711 0 0 0
244 82 2 -1.1794 6.125062738149609 13.9365143372595 4.854222488466237 0 0 0
116 39 1 0.5897 6.736407356370024 10.94783805310231 5.0084872848819195 0 0 0
133 45 2 -1.1794 2.653556151440297 11.809187579503007 6.641007542022203 0 0 0
134 45 1 0.5897 1.9354505830642752 11.983314453004402 7.249472750442198 0 0 0
135 45 1 0.5897 3.442613238893274 11.858822439671181 7.1805794056676655 0 0 0
453 151 1 0.5897 0.9190830789329285 11.861766612718826 9.464546571493736 0 0 0
451 151 2 -1.1794 0.8704760324828509 12.46593825872311 8.7237037739145 0 0 0
450 150 1 0.5897 4.178309041510041 11.26648224722165 9.581621653095835 0 0 0
446 149 1 0.5897 4.224077598442036 13.409358580444998 8.974123193247362 0 0 0
445 149 2 -1.1794 4.512012164642446 12.652676184603829 8.463512419706376 0 0 0
117 39 1 0.5897 5.81103160788599 10.475618570190798 6.109669844882186 0 0 0
115 39 2 -1.1794 5.911578373617375 11.158230661366005 5.446209805565949 0 0 0
480 160 1 0.5897 7.532666330086375 11.256625639061372 9.910550056626724 0 0 0
245 82 1 0.5897 5.971931219140515 13.063079824113021 5.2146176074367405 0 0 0
447 149 1 0.5897 5.467625302333395 12.706104489782366 8.473427726440988 0 0 0
169 57 2 -1.1794 9.22802134778936 11.928340067663386 7.101578666484974 0 0 0
489 163 1 0.5897 7.425049639944961 13.512413357719272 9.02773005570937 0 0 0
170 57 1 0.5897 9.240642191806117 12.413297900266297 6.276400276928544 0 0 0
488 163 1 0.5897 7.836366006250415 12.323652206003747 8.18536739786398 0 0 0
171 57 1 0.5897 9.259742708288266 11.008216337068399 6.839673682283946 0 0 0
487 163 2 -1.1794 7.182674355489499 12.609182576915629 8.823636489089836 0 0 0
573 191 1 0.5897 0.7673912072649164 14.396471637117154 9.107474272358703 0 0 0
239 80 1 0.5897 2.2104013899963824 13.27656227347625 5.864338512525974 0 0 0
544 182 2 -1.1794 3.8725507899389298 14.81572370542994 9.967603835687806 0 0 0
452 151 1 0.5897 -0.049666073307676584 12.449616874783912 8.460629529674224 0 0 0
575 192 1 0.5897 5.724570152553264 14.981856030927368 6.262240752707982 0 0 0
545 182 1 0.5897 2.993754745106718 14.5665070242155 10.25357962719303 0 0 0
448 150 2 -1.1794 3.9164687580762987 10.635474290742179 10.252081382883668 0 0 0
238 80 2 -1.1794 1.9185757421716165 14.003934199549096 5.314785397741409 0 0 0
317 106 1 0.5897 0.13827100651207158 13.831304105771045 5.188376443681232 1 0 0
457 153 2 -1.1794 2.3484614940141015 12.12711119960961 13.47541817103883 0 0 0
458 153 1 0.5897 1.6534865024063985 12.277741955909564 14.116156635067227 0 0 0
459 153 1 0.5897 3.158248550667338 12.179125565305315 13.983062950215588 0 0 0
562 188 2 -1.1794 1.6191958793442727 14.206020321783548 11.564127245844084 0 0 0
563 188 1 0.5897 2.069077343077554 13.483727291010947 12.002420854211934 0 0 0
440 147 1 0.5897 6.498643280655458 10.738725167920197 11.931427103586449 0 0 0
546 182 1 0.5897 4.4319277062563085 14.630541669803183 10.721946903428865 0 0 0
811 271 2 -1.1794 7.195817394036431 12.516389796226163 15.46103652642371 0 0 0
442 148 2 -1.1794 1.2179464165898417 10.554528265664757 10.615242450788042 0 0 0
564 188 1 0.5897 1.7392699011134756 14.953910902365703 12.1493263484592 0 0 0
449 150 1 0.5897 4.556350506254946 10.75204157613634 10.954357467200879 0 0 0
770 257 1 0.5897 5.361979373763815 12.41949534566661 15.361538931981283 0 0 0
479 160 1 0.5897 8.654350124562498 10.790137048880522 10.81392705908825 0 0 0
495 165 1 0.5897 9.85250651604645 12.487002293693523 13.993139005017973 0 0 0
598 200 2 -1.1794 8.626885251475073 13.986435909769261 11.663129616754954 0 0 0
441 147 1 0.5897 5.54482207464973 10.399683840105736 13.057113408598035 0 0 0
568 190 2 -1.1794 5.703451343577007 13.786866371149893 11.967175531263482 0 0 0
569 190 1 0.5897 5.650013333235994 12.851301666166725 12.162329534090862 0 0 0
494 165 1 0.5897 8.359932211197144 12.237326718117007 14.034007552744267 0 0 0
599 200 1 0.5897 8.794214513883885 13.246349157402854 12.24666309552514 0 0 0
570 190 1 0.5897 6.616702437829018 13.928217652154682 11.717798169809859 0 0 0
444 148 1 0.5897 2.1736406880669032 10.580643045804772 10.661543343529061 0 0 0
478 160 2 -1.1794 7.73502703413429 10.62736449076264 10.602878878427966 0 0 0
493 165 2 -1.1794 9.135741053877828 12.100003420073676 13.490450145152504 0 0 0
439 147 2 -1.1794 5.664577175701523 11.000276194245696 12.321448000986846 0 0 0
758 253 1 0.5897 2.6702760125610476 10.173100801093021 13.701908994593438 0 0 0
769 257 2 -1.1794 4.4051009518638296 12.403166715335573 15.344012353089099 0 0 0
795 265 1 0.5897 9.249687497530326 10.28937147169232 13.713408548492646 0 0 0
600 200 1 0.5897 8.60310536499794 14.748128437526383 12.242354243375717 0 0 0
768 256 1 0.5897 1.0755267869243654 11.686593241034313 17.06032479308817 0 0 0
888 296 1 0.5897 2.036334420805665 13.29949398358299 19.298601995077938 0 0 0
766 256 2 -1.1794 1.2390981038867102 10.903403598616435 17.5857729620423 0 0 0
773 258 1 0.5897 3.0779053252734645 10.661114387765936 17.593277131335707 0 0 0
886 296 2 -1.1794 1.7183785086176127 14.116956944874246 18.91534619199518 0 0 0
774 258 1 0.5897 4.157641787388067 11.077393933607526 16.617232646679938 0 0 0
772 258 2 -1.1794 4.019682570609154 10.598242043675851 17.434310372983983 0 0 0
869 290 1 0.5897 3.0870998995516628 14.22585401493582 17.70493245697289 0 0 0
767 256 1 0.5897 0.5227683037944368 10.886266395110876 18.220438052707053 0 0 0
870 290 1 0.5897 4.599342115147858 14.278144785971351 17.751544576541903 0 0 0
817 273 2 -1.1794 9.099293036163651 12.327573846603466 20.547553482171942 0 0 0
810 270 1 0.5897 9.618974484301562 11.008275982151993 17.694141066596877 0 0 0
782 261 1 0.5897 2.6247460784022207 11.168109285347654 20.445620822615233 0 0 0
764 255 1 0.5897 5.11483904067263 11.086176343429761 18.94446134483474 0 0 0
771 257 1 0.5897 4.142626916271377 13.169628319382568 15.85379673094029 0 0 0
887 296 1 0.5897 2.0327265234372645 14.798662836539227 19.509232672837417 0 0 0
802 268 2 -1.1794 7.841793913277032 11.078362592501067 17.651802745619975 0 0 0
924 308 1 0.5897 9.290181526517133 14.402321800674123 18.169878793567616 0 0 0
763 255 2 -1.1794 5.861617409689747 11.145420108337603 19.5403001923599 0 0 0
892 298 2 -1.1794 5.836910880232231 13.864193284925548 18.998222072936628 0 0 0
813 271 1 0.5897 7.368600029738912 12.058942038053823 16.283926846703576 0 0 0
818 273 1 0.5897 8.870188884320484 13.018886631705445 19.926390210143083 0 0 0
765 255 1 0.5897 5.652311369523829 10.536699134872903 20.248745568055536 0 0 0
803 268 1 0.5897 7.264603260780272 11.040777215555329 18.41448426984385 0 0 0
922 308 2 -1.1794 8.589015568702743 14.417057315154034 18.82131897408712 0 0 0
893 298 1 0.5897 6.75033564741656 14.00353283851512 18.748432147169225 0 0 0
894 298 1 0.5897 5.791721946275789 12.938127140884145 19.236080613599558 0 0 0
868 290 2 -1.1794 3.8537516603677275 14.441479468081273 17.173931397173433 0 0 0
146 49 1 0.5897 9.240595810607761 10.500934224928397 20.547929149777893 0 0 -1
781 261 2 -1.1794 2.6426172075101784 12.121286784641622 20.531429827955346 0 0 0
777 259 1 0.5897 0.5014437370786398 13.642789663654785 15.64755440175721 0 0 0
804 268 1 0.5897 7.734579138925247 10.22706870199933 17.227492183604372 0 0 0
775 259 2 -1.1794 0.44465861156289177 12.692088423432937 15.551824851588625 0 0 0
812 271 1 0.5897 7.295645129527811 13.443682313173055 15.67641453111354 0 0 0
221 74 1 0.5897 4.100429630915775 15.195910160785928 2.9642578438115876 0 0 0
226 76 2 -1.1794 1.313405248231618 17.683988679959405 3.7881449126008766 0 0 0
233 78 1 0.5897 4.150067307968172 17.943437536174997 2.6335679678994945 0 0 0
227 76 1 0.5897 1.0444037399017951 18.312303416738366 3.117998416849009 0 0 0
254 85 1 0.5897 8.850688474942979 15.946820091900094 0.7134911780536178 0 0 0
234 78 1 0.5897 3.1186628613335943 17.318414719466176 3.54868359134631 0 0 0
235 79 2 -1.1794 0.7369325110685753 19.146068541997835 1.6500455675493082 0 0 0
230 77 1 0.5897 3.8227690140000012 19.22716012203515 0.7542628367480342 0 0 0
224 75 1 0.5897 5.141469888932314 17.602046644851427 4.691713006814789 0 0 0
249 83 1 0.5897 1.4609130409008966 15.762130417644894 1.60438162417793 0 0 0
228 76 1 0.5897 0.7315606150456714 17.85829991414637 4.527945292505711 0 0 0
248 83 1 0.5897 0.7492254622022568 16.11679097819969 2.8926580050936024 0 0 0
232 78 2 -1.1794 4.035864996398916 17.250133089137876 3.2835952132289634 0 0 0
229 77 2 -1.1794 4.362569154932593 19.435081823346607 1.516907156004743 0 0 0
262 88 2 -1.1794 7.829401955831801 17.214047793190552 3.4779161314307783 0 0 0
247 83 2 -1.1794 0.7318145797938236 15.49577460963077 2.164452891758583 0 0 0
284 95 1 0.5897 7.524834229870327 15.769062604898863 2.399148319965873 0 0 0