LAMMPS data file via write_data, version 30 Jul 2021, timestep = 1000000

1008 atoms
2 atom types
672 bonds
1 bond types
336 angles
1 angle types

-3.2503795334988173 14.860378533054265 xlo xhi
-0.24246527321468037 22.82246427321579 ylo yhi
-0.056248817712665655 19.286246817712367 zlo zhi
0.15364061623708578 -6.703258903170579 0.021738708433349907 xy xz yz

Masses

1 1.008
2 15.999

Pair Coeffs # lj/cut/tip4p/long/omp

1 0 0
2 0.21084 3.1668

Bond Coeffs # harmonic/omp

1 450 0.9572

Angle Coeffs # harmonic/omp

1 55 104.52

Atoms # full

122 41 1 0.5897 -2.573014854863798 2.1829453874952147 1.4904715719587183 1 0 0
123 41 1 0.5897 -3.413675769647794 3.02603750332789 2.4256000453580353 1 0 0
56 19 1 0.5897 -1.4074684555243075 3.5613840113047908 3.058899471766625 0 0 0
86 29 1 0.5897 -2.8178097671770477 1.2053586942424537 3.578331602327163 1 0 0
482 161 1 0.5897 -0.9924731786518595 0.2228742244267996 0.9950932326604709 1 1 0
55 19 2 -1.1794 -0.9157208620193096 4.128429735463078 3.6528612747106477 0 0 0
121 41 2 -1.1794 -2.5635706554598316 2.591747662009189 2.356016955535639 1 0 0
158 53 1 0.5897 -4.517159737249861 4.433473583560276 4.4262517970350075 1 0 0
163 55 2 -1.1794 -2.1244376974254626 1.059942607324619 0.004338037925136512 1 0 0
602 201 1 0.5897 -0.29960780000981835 5.294888540679365 0.5069891872390063 1 0 1
85 29 2 -1.1794 -2.8544909426126392 0.9572509233324658 4.502203018548538 1 0 0
87 29 1 0.5897 -3.786729107582749 0.9739935576175458 4.71836623502519 1 0 0
19 7 2 -1.1794 1.0917164892482303 2.479980414583385 0.036411481596299575 0 0 0
57 19 1 0.5897 -0.14509466804143667 4.391794496070595 3.1498943362059157 0 0 0
157 53 2 -1.1794 -4.069388429154301 4.9649949905065265 5.084424674557462 1 0 0
135 45 1 0.5897 -1.5953007784524518 3.2936669360382784 6.531725903535373 1 0 0
69 23 1 0.5897 -3.099071111786406 0.7858076051781251 8.426975211720173 0 0 0
669 223 1 0.5897 -5.414888120441358 1.8563448183346587 9.023629860219266 1 0 0
134 45 1 0.5897 -2.4466110326452215 2.414261452469881 5.640869036268972 1 0 0
124 42 2 -1.1794 -5.064868168479064 2.585957071121464 7.374906589117024 1 0 0
133 45 2 -1.1794 -2.5053291340879893 3.0897443256189026 6.316542719835362 1 0 0
126 42 1 0.5897 -4.189744093241531 2.9457188280728612 7.230649926867314 1 0 0
159 53 1 0.5897 -3.4725196227488104 4.355965979385706 5.519269079595777 1 0 0
98 33 1 0.5897 -4.655231581268675 4.986667913062961 8.927180556624013 1 0 0
67 23 2 -1.1794 -2.6761611094885023 0.024579958025086335 8.02963387928043 0 0 0
125 42 1 0.5897 -5.659331220961924 3.292026615912379 7.121354147058154 1 0 0
97 33 2 -1.1794 -4.724509381123921 4.449889013844423 9.716792998300097 1 0 0
986 329 1 0.5897 -4.277879108116368 0.2135966904562221 10.65870950549481 1 1 0
627 209 1 0.5897 -7.123724039650438 2.822321249021335 12.339736806908991 1 0 0
668 223 1 0.5897 -5.831784366182987 1.8126399259900974 10.478541753798973 1 0 0
559 187 2 -1.1794 -4.26238047653908 3.8420567218561343 13.209622235759513 0 0 0
560 187 1 0.5897 -4.952467442249729 3.273455312746418 12.868229751641518 0 0 0
626 209 1 0.5897 -6.283685089088595 1.6701017406489942 12.848287915000792 1 0 0
625 209 2 -1.1794 -6.3370271143156796 2.3141729491177343 12.142094211042338 1 0 0
523 175 2 -1.1794 -2.6268223926474183 2.2607257465708246 9.805801993500292 0 0 0
99 33 1 0.5897 -4.696897367160773 5.07880788179659 10.437885394539979 1 0 0
524 175 1 0.5897 -3.0859507847348246 3.095826213437566 9.89528570887348 0 0 0
667 223 2 -1.1794 -5.65143894249452 1.249862374705473 9.725490759001978 1 0 0
662 221 1 0.5897 -7.824151706663772 4.499148556202268 14.403774765264377 1 0 0
561 187 1 0.5897 -3.7627372185597183 3.2825777200877635 13.804317477446958 0 0 0
606 202 1 0.5897 -6.628824840677376 4.555420832731291 9.911525774098543 1 0 0
987 329 1 0.5897 -3.3795423358234467 -0.09798589854444684 11.836840329480898 1 1 0
661 221 2 -1.1794 -7.297569134221034 5.217807423207478 14.753530016532677 1 0 0
20 7 1 0.5897 -5.955170659656533 1.7948025231024323 18.832679939473188 0 0 -1
637 213 2 -1.1794 -6.082310074760059 3.262464460841924 16.23041634079332 1 0 0
590 197 1 0.5897 -5.881108924856271 1.6491519093813936 15.158462308660662 1 0 0
639 213 1 0.5897 -6.341499529979389 3.9640334805379105 15.632941100698103 1 0 0
589 197 2 -1.1794 -5.960536678935034 0.9567789863524989 14.502310253458617 1 0 0
638 213 1 0.5897 -6.871883194017622 3.075633809951852 16.738244358282685 1 0 0
630 210 1 0.5897 -8.647539385385112 1.876087480313874 16.215408924088436 1 0 0
628 210 2 -1.1794 -8.838479682578807 2.464913204827631 16.945573809506946 1 0 0
164 55 1 0.5897 -8.715522649741608 1.6077805647078984 18.554958809632744 1 0 -1
571 191 2 -1.1794 -5.782451375629989 0.24825032249622592 17.736864383851604 0 0 0
165 55 1 0.5897 -9.36922239933105 0.3428884519280442 19.069305215006388 1 0 -1
591 197 1 0.5897 -5.323750672818136 0.2954100646651925 14.773076061046346 1 0 0
549 183 1 0.5897 -4.863015505898323 4.164628299013802 17.00961628681538 0 0 0
593 198 1 0.5897 -8.124151985200523 0.6154280343443694 14.518895922721002 1 0 0
101 34 1 0.5897 -9.089631952334774 4.709407719485802 19.273104881023485 1 0 -1
603 201 1 0.5897 -6.569686658389305 4.020127139027235 19.19888381149581 1 0 0
601 201 2 -1.1794 -7.233549948986935 4.707756884033664 19.147830049630073 1 0 0
113 38 1 0.5897 -3.291529806781237 5.638059805011636 3.2224985090911256 1 0 0
112 38 2 -1.1794 -3.131211603632604 6.265837045122381 2.5178100191109003 1 0 0
291 97 1 0.5897 -3.208434805941917 10.363580793006252 2.3921538228513826 1 0 0
289 97 2 -1.1794 -2.3966134740069975 9.882719099148215 2.2312863389812922 1 0 0
145 49 2 -1.1794 -0.6027767671458535 6.937188501923178 1.686953060735327 1 0 0
146 49 1 0.5897 -1.369872287897417 6.785325828881099 2.2388422555393173 1 0 0
147 49 1 0.5897 -0.898183297542194 7.572269528148622 1.034464790727647 1 0 0
255 85 1 0.5897 -2.253701576715672 8.917175789788027 3.7936800845889653 1 0 0
332 111 1 0.5897 -1.9530161255603062 9.23806052133535 0.5934478619760386 1 0 0
290 97 1 0.5897 -1.703431555999472 10.485755319150327 2.499450458346586 1 0 0
187 63 2 -1.1794 0.9490337242125424 10.199022271090234 0.43638053903056395 0 0 0
9 3 1 0.5897 -0.8785143894065639 5.680344543638594 4.311592409553182 0 0 0
114 38 1 0.5897 -3.30068097315381 5.773615735069349 1.7145026073459815 1 0 0
253 85 2 -1.1794 -2.118511221479814 8.694539599560139 4.7148915952148 1 0 0
254 85 1 0.5897 -1.5435222102147084 7.929572400315839 4.695015141715118 1 0 0
301 101 2 -1.1794 -2.4813557344797688 10.3312619006411 7.023790486854953 1 0 0
237 79 1 0.5897 -2.515392752983554 8.03410551880566 8.162760740955077 0 0 0
235 79 2 -1.1794 -2.240437737348108 7.361208253690541 7.5399665267664435 0 0 0
294 98 1 0.5897 -5.209240236581939 9.55970637182442 8.09644880394809 1 0 0
109 37 2 -1.1794 -4.792632127344552 6.085146201058022 7.435607433840905 1 0 0
236 79 1 0.5897 -3.0523962082059093 6.922087193230906 7.2871181712117075 0 0 0
303 101 1 0.5897 -1.7027420297668372 10.8877514708668 7.01216416311216 1 0 0
302 101 1 0.5897 -2.248147916937561 9.580849920601787 6.477211318558183 1 0 0
111 37 1 0.5897 -5.722955159305517 6.30953342459345 7.451134237174468 1 0 0
292 98 2 -1.1794 -5.033224149431051 10.211972063548755 7.418271268781955 1 0 0
293 98 1 0.5897 -4.079463512543853 10.224631735237892 7.3393186656443845 1 0 0
257 86 1 0.5897 -3.9434573898311704 8.435895703965727 4.904946487834889 1 0 0
837 279 1 0.5897 -6.120505142380901 7.878818004115976 9.399870024089966 1 0 0
110 37 1 0.5897 -4.617906963117454 5.848829004413568 6.524528825585927 1 0 0
7 3 2 -1.1794 -0.7416505514866563 6.320439292695985 5.010019719716612 0 0 0
266 89 1 0.5897 -3.3225573643935813 11.197223748986758 9.285667357948661 1 0 0
759 253 1 0.5897 -5.995807915020105 8.743092522899897 13.697786716918676 1 0 0
616 206 2 -1.1794 -7.108254697436482 6.594447824312679 12.29797531766877 1 0 0
691 231 2 -1.1794 -2.430499225482473 9.240705642392047 9.767037715495437 0 0 0
794 265 1 0.5897 -5.185005384166596 10.493961112608451 12.229668805316738 1 0 0
649 217 2 -1.1794 -4.356776524185111 6.421137348101092 11.598716405766337 1 0 0
836 279 1 0.5897 -4.807963899356113 8.041643578598709 10.136304015967214 1 0 0
651 217 1 0.5897 -5.15519818326192 6.501040925663917 12.12059824671744 1 0 0
795 265 1 0.5897 -5.861651262970311 9.514743708602886 11.29422734232567 1 0 0
793 265 2 -1.1794 -5.847033883030694 9.803116801821897 12.206939581620675 1 0 0
663 221 1 0.5897 -7.1002467953091175 5.763335333412795 13.992058848639996 1 0 0
650 217 1 0.5897 -3.7593101668857374 7.067994137278681 11.973820107021703 1 0 0
835 279 2 -1.1794 -5.582172307808718 8.527821679980088 9.852724176202337 1 0 0
693 231 1 0.5897 -2.5764661720649196 8.974749383741996 10.67499270731154 0 0 0
618 206 1 0.5897 -7.219879945385294 5.991714327462197 11.562759823652371 1 0 0
513 171 1 0.5897 -4.209951817914812 5.653529467632651 14.12339578821992 0 0 0
333 111 1 0.5897 -8.226120700699527 9.403203006886216 18.491379831598152 1 0 -1
741 247 1 0.5897 -5.702528527472415 8.990095651964758 18.486864766346145 0 0 0
805 269 2 -1.1794 -5.7845416307047195 10.879118220324699 15.961996602563405 1 0 0
797 266 1 0.5897 -7.292995605685125 10.868559253431687 16.894429485635953 1 0 0
796 266 2 -1.1794 -8.196223141908622 10.788143467071462 17.200728589070984 1 0 0
615 205 1 0.5897 -7.329418202538058 6.213794387711393 16.22657959776 1 0 0
739 247 2 -1.1794 -5.509750665795817 8.211938963504121 17.96386229601731 0 0 0
740 247 1 0.5897 -6.361591610145384 7.929003448224773 17.631631512350545 0 0 0
613 205 2 -1.1794 -7.484254195820013 6.583565485721784 17.09585471790875 1 0 0
798 266 1 0.5897 -8.618919276416175 10.221880138478014 16.5550777158022 1 0 0
758 253 1 0.5897 -5.723635706423128 9.108377307536754 15.141679377468172 1 0 0
511 171 2 -1.1794 -4.00301708591213 6.24105151220919 14.850210426669664 0 0 0
757 253 2 -1.1794 -5.8899816696333485 8.359918323535664 14.568668043555448 1 0 0
654 218 1 0.5897 -9.602541196192092 7.608638165081619 18.511181672658928 1 0 0
614 205 1 0.5897 -7.409879641560886 5.837440151159117 17.690923789874724 1 0 0
762 254 1 0.5897 -7.913454654283736 8.13198018612718 15.422578648039883 1 0 0
512 171 1 0.5897 -4.519094033247614 7.028316803675534 14.6767654713993 0 0 0
331 111 2 -1.1794 -8.433986745380004 8.748343069048735 19.157911261289208 1 0 -1
223 75 2 -1.1794 -0.5353518350907147 11.657232020175176 3.358102121033316 0 0 0
225 75 1 0.5897 -0.7637398094826735 12.327350143726726 4.002304870735754 0 0 0
314 105 1 0.5897 0.1279628537285813 15.439415151041528 2.2111584898934167 1 0 0
423 141 1 0.5897 -2.039119143843206 16.4441116464769 3.978161929693006 1 0 0
281 94 1 0.5897 -2.9191938593263673 13.150366612668869 3.253552869528512 1 0 0
282 94 1 0.5897 -1.9947189118784572 13.94757415296991 2.3581206495211267 1 0 0
313 105 2 -1.1794 -0.5452808154529878 14.858004443716185 1.8579554163317928 1 0 0
280 94 2 -1.1794 -2.9118514107632607 13.696670761460476 2.4674681108219727 1 0 0
315 105 1 0.5897 -0.05640299059124931 14.180930438762667 1.390183449805268 1 0 0
770 257 1 0.5897 -1.6959426907913286 12.15779597034577 0.38272725321753964 1 0 1
500 167 1 0.5897 -1.3747714556812343 15.857606690149566 0.3717542142367917 1 0 0
771 257 1 0.5897 -0.3045065840996517 11.562784673953283 0.41928950880923344 1 0 1
769 257 2 -1.1794 -0.7741639715246076 12.394214433979908 0.48487672580606256 1 0 1
458 153 1 0.5897 -2.5394514010950022 17.012309759877727 1.4835251016725952 1 0 0
269 90 1 0.5897 -3.4248748502568342 12.882466088984932 0.9691751470887002 1 0 0
405 135 1 0.5897 -2.761522952426061 16.44617435627748 8.498834555404867 0 0 0
327 109 1 0.5897 -3.7288272140222762 12.98072901606382 5.391403584880263 1 0 0
403 135 2 -1.1794 -2.407089409740488 15.662306848223803 8.079183820848447 0 0 0
267 89 1 0.5897 -3.7017071990512407 12.438129379242973 8.505592992639954 1 0 0
277 93 2 -1.1794 -4.043040107168439 13.686203067297903 7.393221539807642 1 0 0
278 93 1 0.5897 -3.4754986425526377 14.432711289862722 7.584803086889678 1 0 0
325 109 2 -1.1794 -3.2933505743813063 12.328776063966966 4.84224130261669 1 0 0
404 135 1 0.5897 -1.6476426914045281 15.975536663079662 7.587933924048237 0 0 0
425 142 1 0.5897 -3.927745434976413 15.936188072389545 5.2116677291495614 1 0 0
279 93 1 0.5897 -4.916243929620838 13.974249010106506 7.659087833044254 1 0 0
326 109 1 0.5897 -2.8959578877119494 11.718642323875065 5.463626575143802 1 0 0
176 59 1 0.5897 -1.0865843139386042 14.574328061195533 5.284517794279984 0 0 0
1004 335 1 0.5897 -5.13334817037624 16.860761116846327 8.989157520409316 1 0 0
462 154 1 0.5897 -4.969712449851505 16.950387723130838 6.585002114960962 1 0 0
422 141 1 0.5897 -1.706780009666033 16.73067747209277 5.427222034397141 1 0 0
424 142 2 -1.1794 -4.868650055158375 15.936740216478437 5.036298681655463 1 0 0
175 59 2 -1.1794 -0.5637670312446428 13.772667733680072 5.270309346010103 0 0 0
421 141 2 -1.1794 -2.1266375263128614 16.083476285376427 4.860632335740462 1 0 0
265 89 2 -1.1794 -3.5825017139358755 12.11160950979423 9.397583208072346 1 0 0
1005 335 1 0.5897 -4.604211408054251 15.975897801964145 10.097877579871348 1 0 0
819 273 1 0.5897 -3.8614337488412978 13.634675623493186 10.557752993181092 1 0 0
773 258 1 0.5897 -6.600093547977317 12.784137750992556 10.692344903896439 1 0 0
729 243 1 0.5897 -4.209051562864687 12.476374082767135 13.482177838133854 0 0 0
818 273 1 0.5897 -4.707844268074417 14.37105211103623 11.574302069624357 1 0 0
784 262 2 -1.1794 -6.35245846420446 14.060543892500855 12.108844683675551 1 0 0
728 243 1 0.5897 -3.2544487178034958 11.945280253047226 12.43397103315544 0 0 0
786 262 1 0.5897 -6.650211142586029 13.695718978699537 12.942319806457846 1 0 0
817 273 2 -1.1794 -3.894327454822507 14.439633194482036 11.074604054818785 1 0 0
785 262 1 0.5897 -7.064489794976215 14.636708251552934 11.830936134379435 1 0 0
1003 335 2 -1.1794 -5.364252558994789 16.50001678059396 9.845289893340155 1 0 0
727 243 2 -1.1794 -4.057824695241113 11.726884987748727 12.906290273268523 0 0 0
831 277 1 0.5897 -7.880685078806678 12.06074431997894 14.186533159791486 1 0 0
925 309 2 -1.1794 -5.449386183620382 16.465878592563396 14.406727831498213 1 0 0
829 277 2 -1.1794 -7.2151982361597975 12.702219915688318 14.434935814491098 1 0 0
774 258 1 0.5897 -5.821246820327376 12.044515089302399 9.625359423924948 1 0 0
908 303 1 0.5897 -6.315320385216568 14.769877830128266 17.661823515902746 0 0 0
783 261 1 0.5897 -8.559721317880385 13.960184792643625 17.20260644813063 1 0 0
357 119 1 0.5897 -5.8422052929749775 16.917408270457983 18.924700314577954 0 0 -1
909 303 1 0.5897 -5.046226658146825 15.55806246535502 17.417538806033562 0 0 0
781 261 2 -1.1794 -7.6442516010941 13.68096350234894 17.20845592906167 1 0 0
782 261 1 0.5897 -7.593986787367937 13.03784932481583 17.915745484126823 1 0 0
907 303 2 -1.1794 -5.67044539307892 15.322039806479367 18.103804956547634 0 0 0
830 277 1 0.5897 -7.585049677233302 13.14921100342084 15.196354604399716 1 0 0
679 227 2 -1.1794 -3.9541694919364927 14.01505187034866 14.617612357941532 0 0 0
806 269 1 0.5897 -6.321018469370142 11.492959198943298 15.460358071026695 1 0 0
807 269 1 0.5897 -4.948249914983096 11.330079033461463 16.07725905354443 1 0 0
926 309 1 0.5897 -4.700274784365446 15.874290351718372 14.477654848362747 1 0 0
499 167 2 -1.1794 -8.60505431599581 16.531516941196465 19.252533262365098 1 0 -1
681 227 1 0.5897 -4.04526420099258 13.77314153060365 15.539386891331196 0 0 0
501 167 1 0.5897 -7.966446701366798 17.065510568780642 18.780049948617943 1 0 -1
930 310 1 0.5897 -7.330342615939627 16.157395140513994 14.57064756699325 1 0 0
495 165 1 0.5897 -3.2771351135776845 20.49621738100396 4.1692975574078766 1 0 0
391 131 2 -1.1794 -0.869977665646323 19.61976071593248 3.193236577742946 0 0 0
483 161 1 0.5897 -1.0506000096746853 22.35062168020624 2.165217398108812 1 0 0
393 131 1 0.5897 -1.0166196178425135 20.42329643010867 3.6922889976679585 0 0 0
449 150 1 0.5897 -3.3369006309503333 21.01308248263409 1.7708341756024868 1 0 0
448 150 2 -1.1794 -3.254055201644095 21.48461913600205 2.599767131280545 1 0 0
356 119 1 0.5897 1.0032264690990695 17.156751580997906 1.0668009716193407 0 0 0
481 161 2 -1.1794 -0.3786931033702201 22.66925018962695 1.5625144232386343 1 0 0
457 153 2 -1.1794 -2.6299872252821546 17.288310544666746 2.3956965225574343 1 0 0
459 153 1 0.5897 -2.2352561840479725 18.15983743409196 2.4229339944218062 1 0 0
938 313 1 0.5897 -0.11582155756842827 20.736500882842726 0.3349650269397954 1 0 1
392 131 1 0.5897 -0.1013441213456292 19.808409939022784 2.6548698336554737 0 0 0
450 150 1 0.5897 -4.031569250765231 22.04156562532008 2.63780218438501 1 0 0
437 146 1 0.5897 -2.45170828701202 19.740767059143 0.23041315524505857 1 0 0
355 119 2 -1.1794 0.8974385582838043 17.6027560605172 0.2263752746694479 0 0 0
494 165 1 0.5897 -3.698891212574109 20.38486931374337 5.619188872812051 1 0 0
68 23 1 0.5897 -3.2444283529096976 22.499394895989624 7.813648749826064 0 -1 0
471 157 1 0.5897 -3.052815954609683 18.2256918056284 7.310337038094822 1 0 0
470 157 1 0.5897 -2.555831470020124 18.773169345536157 5.989102560064122 1 0 0
445 149 2 -1.1794 -4.372450445914923 21.149142399317466 7.083297927051574 1 0 0
446 149 1 0.5897 -4.393377499591603 20.734073976220262 7.945704927968373 1 0 0
344 115 1 0.5897 -0.8711196649477646 21.549174971969393 5.649166625313658 0 0 0
469 157 2 -1.1794 -2.253324311825904 18.376175359353425 6.805994082226188 1 0 0
447 149 1 0.5897 -5.216561952121973 21.594513433384478 7.010758257538069 1 0 0
460 154 2 -1.1794 -4.863881742603851 17.529941416678952 7.339467545709603 1 0 0
461 154 1 0.5897 -5.4764583641347375 18.247616092467645 7.178530288262826 1 0 0
343 115 2 -1.1794 -0.732152861026738 22.002532982032633 4.81754229549384 0 0 0
493 165 2 -1.1794 -3.388303570545755 19.863424010120433 4.878951178976525 1 0 0
345 115 1 0.5897 -1.3217737284569886 22.75569636425736 4.853354029409114 0 0 0
860 287 1 0.5897 -3.3017332733219242 18.629650803884747 9.797119618525747 0 0 0
954 318 1 0.5897 -5.475268509107668 22.13363683473137 11.716258627657432 1 0 0
961 321 2 -1.1794 -5.712895827867909 18.07998655592498 11.995953746450144 1 0 0
952 318 2 -1.1794 -6.296963076514459 21.676390207569494 11.89465783967628 1 0 0
895 299 2 -1.1794 -3.549715802695383 19.513650107872593 12.865524002243141 0 0 0
896 299 1 0.5897 -4.178807527470751 18.92449406404283 12.449336806134903 0 0 0
434 145 1 0.5897 -3.852694705875051 21.033998081775025 10.275342306716242 1 0 0
963 321 1 0.5897 -5.686717334194499 17.506242905951947 11.230152034380566 1 0 0
998 333 1 0.5897 -6.671332838577264 21.100655131660584 13.632105325095937 1 0 0
985 329 2 -1.1794 -3.8126483135856564 22.555081950660767 11.202639913175068 1 0 0
848 283 1 0.5897 -3.7073210331114854 20.95636555287039 14.209883448656997 0 0 0
433 145 2 -1.1794 -3.963115283249677 20.308539149539246 9.660734784693302 1 0 0
859 287 2 -1.1794 -2.6503101397243642 17.93981652526304 9.923504233754567 0 0 0
962 321 1 0.5897 -5.623781666224285 17.487844119285878 12.742832742796274 1 0 0
953 318 1 0.5897 -6.977778041882338 22.314800694552396 11.682240597877243 1 0 0
435 145 1 0.5897 -4.8770284280971685 20.04365167971858 9.764018472852312 1 0 0
977 326 1 0.5897 -7.229987133124013 18.550084427777193 12.545735061956911 1 0 0
937 313 2 -1.1794 -6.966040586674547 20.1500112699859 18.953078131770745 1 0 0
927 309 1 0.5897 -5.178902463309606 17.253340035787545 14.87886083802294 1 0 0
975 325 1 0.5897 -4.707658052519063 19.245474756395094 16.48618173031968 1 0 0
974 325 1 0.5897 -6.1266534886085955 18.76176882835843 16.276844937632085 1 0 0
973 325 2 -1.1794 -5.317839557675849 18.961484201900035 15.805590862245584 1 0 0
949 317 2 -1.1794 -7.809439521831348 21.877282906083042 16.922629430219224 1 0 0
950 317 1 0.5897 -7.572551862209707 21.66003952644951 16.020908269977028 1 0 0
951 317 1 0.5897 -7.4953505960238855 21.13492073202887 17.438921399663926 1 0 0
966 322 1 0.5897 -8.379314401339965 18.410652372790125 16.77874533937547 1 0 0
964 322 2 -1.1794 -7.594959647820508 17.866061826687798 16.844865103015565 1 0 0
999 333 1 0.5897 -6.241912645204197 20.21005260409292 14.778710594948972 1 0 0
573 191 1 0.5897 -5.124771088268277 22.695923728222915 18.267177214879858 0 -1 0
939 313 1 0.5897 -6.410642120792074 19.39716680571471 19.15545025318243 1 0 0
997 333 2 -1.1794 -6.968804848639916 20.75247910486956 14.472764639476768 1 0 0
572 191 1 0.5897 -6.410522537928255 22.825091680858435 17.478637239820813 0 -1 0
965 322 1 0.5897 -7.743426898527984 17.154737861009096 16.221802642957222 1 0 0
70 24 2 -1.1794 4.187250515888048 0.6355932819346061 1.6236473497570403 0 0 0
54 18 1 0.5897 3.0760187684167715 3.79203325256797 2.9728779539917567 0 0 0
31 11 2 -1.1794 1.5292612496230182 1.2615717579386825 2.4320746938994198 0 0 0
46 16 2 -1.1794 1.6053950779456647 4.8833505172315235 2.612014705529816 0 0 0
52 18 2 -1.1794 3.66026218289955 3.1429523788321485 3.364761365502988 0 0 0
32 11 1 0.5897 1.5221728768239613 1.5135918833838435 3.3555738065542586 0 0 0
6 2 1 0.5897 3.77364744501559 1.4191104752713413 4.367556561716201 0 0 0
21 7 1 0.5897 1.0298496415010527 2.1441342351112325 0.9307548894558766 0 0 0
528 176 1 0.5897 4.277123010691921 1.8836605526031676 0.38369427074471457 0 0 1
53 18 1 0.5897 4.358084291879103 3.027952892087252 2.719711410024574 0 0 0
16 6 2 -1.1794 5.470364671008214 4.9008921750964785 0.35369407974792305 0 0 0
71 24 1 0.5897 3.383847712003657 0.8628272429464792 2.091676415981145 0 0 0
47 16 1 0.5897 1.826000257313999 5.255773360733322 1.7581535245134443 0 0 0
18 6 1 0.5897 4.960912251330505 4.119514717116721 0.13924504732282428 0 0 0
72 24 1 0.5897 4.415630913844968 -0.2355569747981886 1.9479823492603732 0 0 0
33 11 1 0.5897 0.8897089470200408 0.552029737244139 2.3721354236581083 0 0 0
78 26 1 0.5897 0.11238747582469566 2.7717048487338576 4.673752525619496 0 0 0
77 26 1 0.5897 0.28407693903263587 1.7626128395730305 5.789348380007059 0 0 0
36 12 1 0.5897 -0.9972967343373229 0.839980860467612 7.48743240792174 0 0 0
59 20 1 0.5897 1.9659973947510654 3.2530751911539864 5.6116325257390125 0 0 0
34 12 2 -1.1794 -0.08176231053142446 1.1189839751287858 7.48475853644796 0 0 0
35 12 1 0.5897 0.0034438709900150855 1.6698645069010019 8.262953385400806 0 0 0
45 15 1 0.5897 0.7735666948605298 4.328480141345739 6.777153738999512 0 0 0
4 2 2 -1.1794 3.9244296186693255 0.8368799400405127 5.112325113181192 0 0 0
60 20 1 0.5897 2.663384110541881 3.4037888842555244 6.9469679022809006 0 0 0
43 15 2 -1.1794 -0.15591077710994394 4.443791371236808 6.974347668366802 0 0 0
58 20 2 -1.1794 2.314791342500037 3.910594257453786 6.213465551340451 0 0 0
44 15 1 0.5897 -0.17305818078169422 4.7444169059529395 7.883051262394508 0 0 0
5 2 1 0.5897 3.4114898596847807 0.05391095508866345 4.912481398274967 0 0 0
522 174 1 0.5897 2.0702788978909705 5.295622269322541 9.33577040088619 0 0 0
401 134 1 0.5897 2.4045678047009176 -0.09538358415518111 9.019797667197444 0 1 0
76 26 2 -1.1794 0.716807745460204 2.1095555371218464 5.009113474359748 0 0 0
587 196 1 0.5897 -1.5695764372651202 5.269014072976444 9.982280840730441 0 0 0
536 179 1 0.5897 -2.2044369624575424 1.4617976862258564 13.039276235473334 0 0 0
550 184 2 -1.1794 -2.0949479994648845 4.636076818671864 11.689507297718004 0 0 0
558 186 1 0.5897 -0.47443657414416407 3.154881797332511 12.596491799924872 0 0 0
535 179 2 -1.1794 -1.9729263028629047 1.0117307401297815 12.226757734643433 0 0 0
574 192 2 -1.1794 0.5453931907920841 0.46278455250702777 11.43867919315912 0 0 0
22 8 2 -1.1794 0.3075271883192334 2.537709707625251 9.648116701104005 0 0 0
556 186 2 -1.1794 0.20284532706848246 3.270158999297807 13.262979763548888 0 0 0
23 8 1 0.5897 0.41933343155985314 1.9044894555253893 10.357298131169992 0 0 0
557 186 1 0.5897 0.20805612776063498 2.4434690141980044 13.74553157189716 0 0 0
576 192 1 0.5897 -0.3257501651048873 0.46025976153740744 11.83520504211412 0 0 0
525 175 1 0.5897 -1.7167813739664668 2.504142801831875 9.636514650935482 0 0 0
537 179 1 0.5897 -2.4107576562900066 1.5151063511599963 11.540266848558257 0 0 0
551 184 1 0.5897 -1.7669077945717167 5.1850276720566475 12.40174245596444 0 0 0
520 174 2 -1.1794 2.169396984594681 4.581799378795091 9.965845409579275 0 0 0
24 8 1 0.5897 0.9381210435519716 3.2306818974011415 9.843563870533817 0 0 0
521 174 1 0.5897 1.9580040018428067 4.977002867445255 10.8117098932322 0 0 0
552 184 1 0.5897 -2.819101326886315 4.145845341282887 12.078637314632513 0 0 0
575 192 1 0.5897 1.029750218340432 -0.20846875926324102 11.919396066309131 0 0 0
539 180 1 0.5897 -2.778588513697465 1.1754403201961436 17.713506596360148 0 0 0
582 194 1 0.5897 -2.0579374887255923 2.9491989324831493 15.121911457784346 0 0 0
563 188 1 0.5897 -1.3668779195152725 4.9050495370529665 15.569667366921854 0 0 0
564 188 1 0.5897 -2.228518132658934 4.278964883194089 16.645653729616186 0 0 0
562 188 2 -1.1794 -1.3684870006710481 4.21273556467268 16.23076337882536 0 0 0
538 180 2 -1.1794 -2.956160773661713 0.6897545098490938 16.907979090762502 0 0 0
581 194 1 0.5897 -2.9338849570928334 1.7686407411740568 15.483408537380832 0 0 0
547 183 2 -1.1794 -4.098351692570999 4.630719123865948 17.347425677832305 0 0 0
527 176 1 0.5897 -3.6194332070145867 2.573871352292551 19.077373467170545 0 0 0
540 180 1 0.5897 -3.8574453931664765 0.3831232684232294 17.006537510327966 0 0 0
548 183 1 0.5897 -3.914108710480564 5.299309424416913 16.68756940672357 0 0 0
508 170 2 -1.1794 0.45891712928137895 1.0396136821307316 14.925713706030237 0 0 0
580 194 2 -1.1794 -2.6218034684952958 2.27894294551058 14.736016747922763 0 0 0
526 176 2 -1.1794 -2.662786935030068 2.5499230730634954 19.059157047674802 0 0 0
82 28 2 -1.1794 2.0794142222858945 6.44342670047192 0.24336607562268608 0 0 0
221 74 1 0.5897 4.664523316824781 10.320187538517665 2.9039796746762314 0 0 0
240 80 1 0.5897 3.337324419476163 7.4932853481218995 0.9244127166604122 0 0 0
174 58 1 0.5897 3.8047871012527104 9.067245527043173 4.632529659396267 0 0 0
238 80 2 -1.1794 3.9286140582402735 8.033133677788122 1.4488650823389486 0 0 0
199 67 2 -1.1794 1.465837604304129 8.462564058854069 2.5543682765763944 0 0 0
239 80 1 0.5897 3.8343414553213346 8.913985680514864 1.086263003542288 0 0 0
201 67 1 0.5897 2.3674406551636773 8.179373251595047 2.402560639792298 0 0 0
245 82 1 0.5897 1.3066483353700438 9.316968648291 4.223245941400114 0 0 0
200 67 1 0.5897 0.9327213711147531 7.704802769860046 2.3142326387213865 0 0 0
220 74 2 -1.1794 3.8775494770297625 10.378067637641426 3.4457946606237075 0 0 0
224 75 1 0.5897 0.004658560729912331 11.032800771204851 3.8426109374199537 0 0 0
222 74 1 0.5897 3.3754645685253433 11.09775003412853 3.063408202163644 0 0 0
189 63 1 0.5897 1.826691598161509 10.529429209660202 0.24498499583261585 0 0 0
48 16 1 0.5897 1.9101870854230985 5.534457861761964 3.243975919129398 0 0 0
188 63 1 0.5897 1.0539535555652169 9.690852380807224 1.240861169454807 0 0 0
191 64 1 0.5897 0.4376590435066081 9.562968780547967 8.658529143105245 0 0 0
246 82 1 0.5897 0.8997105818503339 9.458563084804263 5.674725017491838 0 0 0
8 3 1 0.5897 -0.6612148323683709 5.794217443647232 5.805666341605027 0 0 0
202 68 2 -1.1794 0.31254527215011363 8.54082541832661 7.093020593537188 0 0 0
203 68 1 0.5897 -0.46256825216951825 7.989554365645267 7.199668860966742 0 0 0
64 22 2 -1.1794 2.059811153534728 6.772157059176534 8.27424988016404 0 0 0
204 68 1 0.5897 1.045188973512479 7.973714525222615 7.333449114641959 0 0 0
586 196 2 -1.1794 -0.9429137649177708 5.646925845603954 9.365221988745217 0 0 0
66 22 1 0.5897 2.9000051698957634 6.582233754179414 7.856881179973319 0 0 0
11 4 1 0.5897 2.277144147167352 5.570386232104381 5.143160041907897 0 0 0
588 196 1 0.5897 -1.4806035166058216 6.155246360909169 8.757918323145955 0 0 0
65 22 1 0.5897 2.2504543676536866 7.484479640413883 8.884550453749288 0 0 0
173 58 1 0.5897 3.379187389737085 7.731481973859543 5.203942140427086 0 0 0
190 64 2 -1.1794 0.2197453495298558 9.938129774302537 9.511854965267169 0 0 0
192 64 1 0.5897 0.5570497162636001 10.833053650263633 9.473660776169078 0 0 0
244 82 2 -1.1794 1.1194709258553335 9.971055101167774 4.896597199174305 0 0 0
172 58 2 -1.1794 3.959590594187852 8.474600000446708 5.368207673137369 0 0 0
12 4 1 0.5897 1.2302280244211286 6.6202732311734795 4.837525896340676 0 0 0
10 4 2 -1.1794 2.173717000223885 6.4617645334685925 4.8099978441457605 0 0 0
516 172 1 0.5897 -0.529603636861852 6.623778913379441 14.114025030676007 0 0 0
744 248 1 0.5897 -0.24552768431536132 6.8827708127465215 10.47148907408072 0 0 0
705 235 1 0.5897 -2.2078845058404717 8.982497965475192 13.068349827538311 0 0 0
742 248 2 -1.1794 -0.03285016304364019 7.595477607699161 11.073998071399693 0 0 0
724 242 2 -1.1794 0.526645578746697 10.726558653667142 13.291950289628229 0 0 0
743 248 1 0.5897 0.24668157510596833 8.313905588679152 10.506509102516851 0 0 0
703 235 2 -1.1794 -2.4580382846741538 8.448550883436756 12.314326181432895 0 0 0
704 235 1 0.5897 -1.643401578057138 8.030763339350768 12.0351321936388 0 0 0
515 172 1 0.5897 -2.0177617913283514 6.392122094616316 14.266281572482333 0 0 0
748 250 2 -1.1794 -2.3567675076243795 10.106046305019747 14.430192097893244 0 0 0
678 226 1 0.5897 0.2815998546892935 8.828591533714567 14.040998284690682 0 0 0
514 172 2 -1.1794 -1.218156160569973 5.983611952052959 13.93475208636817 0 0 0
726 242 1 0.5897 -0.2538112091605793 11.115099848322673 12.896854730964899 0 0 0
750 250 1 0.5897 -3.0458673571612422 10.651289453781128 14.050631314200944 0 0 0
534 178 1 0.5897 1.7117325267975936 6.815986825569527 11.82950554704433 0 0 0
692 231 1 0.5897 -1.5490917950562486 9.613677920078029 9.764967904642067 0 0 0
707 236 1 0.5897 -3.9158114017422676 8.353888838079735 17.03257450297938 0 0 0
83 28 1 0.5897 -5.061080962300084 7.0615278944575355 18.97799693739981 0 0 -1
706 236 2 -1.1794 -3.078096306133623 8.703920658400262 16.729570193488847 0 0 0
569 190 1 0.5897 -1.2417163941183267 6.356135164254304 18.665457224172705 0 0 0