LAMMPS data file via write_data, version 30 Jul 2021, timestep = 25250000

864 atoms
2 atom types
576 bonds
1 bond types
288 angles
1 angle types

0.06571339099869355 18.141859009005888 xlo xhi
0.21081118089118256 23.4183666191204 ylo yhi
0.16299553665772137 22.050200263338837 zlo zhi

Masses

1 1.00794
2 15.9994

Atoms # full

707 1 1 0.5897 3.1164941510585713 2.1600185291855527 3.804430990029045 0 0 0
706 1 2 -1.1794 3.1908443154056045 2.2653664986935316 2.855986118049289 0 0 0
30 1 1 0.5897 5.767270248087939 4.02160301221432 2.355173175412202 0 0 0
708 1 1 0.5897 2.336880403473382 2.6016984215151417 2.58422329035274 0 0 0
29 1 1 0.5897 4.97814636260594 2.7298349907878916 2.3700910102583332 0 0 0
28 1 2 -1.1794 5.821478208848075 3.098678244459973 2.1074889317837204 0 0 0
3 1 1 0.5897 0.676289925879364 4.168855266787485 2.3701668479969764 0 0 0
1 1 2 -1.1794 0.7878605065611696 3.254448248077634 2.1103796463500446 0 0 0
495 1 1 0.5897 8.629003160453905 2.149232058406102 2.9724296016555987 0 0 0
494 1 1 0.5897 7.115274922819257 2.1718344254014803 2.968554870854805 0 0 0
493 1 2 -1.1794 7.8659460727848876 1.8286288467255993 3.4532188618006936 0 0 0
597 1 1 0.5897 0.6905055951497596 5.940723005887225 4.1270153080726715 0 0 0
846 1 1 0.5897 7.642866681853671 2.0309132150084084 5.222403182153521 0 0 0
595 1 2 -1.1794 0.6993467193781203 5.804513744286788 3.1796239347732063 0 0 0
819 1 1 0.5897 7.742097346478195 0.3088558539760787 2.477292528440359 0 0 0
136 1 2 -1.1794 5.423978051932888 5.7710967437139296 3.264337960555462 0 0 0
137 1 1 0.5897 5.278824398843369 5.9235243175913 4.1980800580705 0 0 0
20 1 1 0.5897 1.0077070160023751 3.220892157638065 0.3837909365650066 0 0 0
668 1 1 0.5897 5.66342860927228 2.94066567951934 0.229223107203753 0 0 0
188 1 1 0.5897 2.8457284297535095 0.4321981917038991 2.041648814816739 0 1 0
487 1 2 -1.1794 3.161401068835974 2.077528464215253 5.596335885765337 0 0 0
83 1 1 0.5897 4.443671589078425 2.852203599057596 6.319013867217008 0 0 0
181 1 2 -1.1794 0.782465186081501 5.85375513176843 5.903606502575548 0 0 0
82 1 2 -1.1794 5.146975056573909 3.292046790241332 6.796596397179153 0 0 0
686 1 1 0.5897 5.372054955487532 5.058547112159985 6.36419689322419 0 0 0
674 1 1 0.5897 3.4462000448046215 2.2949302067518396 9.97155400974999 0 0 0
356 1 1 0.5897 7.523391378533379 1.0225074358718618 10.372443547857875 0 0 0
419 1 1 0.5897 9.076135887851716 2.5672549813371908 6.764549456011407 0 0 0
488 1 1 0.5897 2.36341195019782 2.5090390881909146 5.901640465368268 0 0 0
489 1 1 0.5897 3.1637206319691877 1.2321052785176632 6.045056018436686 0 0 0
673 1 2 -1.1794 2.6230822529244033 1.9269232275918482 10.292881960150288 0 0 0
34 1 2 -1.1794 0.5874734367912394 3.465289027545081 9.313488833585652 0 0 0
274 1 2 -1.1794 5.077294209844824 2.950426527399468 9.518795054707924 0 0 0
678 1 1 0.5897 5.351892041782794 4.697104786964889 9.847627407701673 0 0 0
183 1 1 0.5897 0.7119047415442159 4.938628513057929 6.174970019131734 0 0 0
36 1 1 0.5897 1.2543918057805057 2.896293198678279 9.697713546554397 0 0 0
355 1 2 -1.1794 7.3878782875321765 1.9694408033867752 10.40469244817432 0 0 0
35 1 1 0.5897 0.6104433434730481 4.2578443077530395 9.849642360825811 0 0 0
84 1 1 0.5897 5.936209109889105 2.8014154553435207 6.5673000684859275 0 0 0
276 1 1 0.5897 5.88258900701144 2.498350229758705 9.770441671542715 0 0 0
675 1 1 0.5897 2.6455012676436747 1.0109907424303444 10.016036239334188 0 0 0
275 1 1 0.5897 5.1725969665584515 3.105151470371224 8.579030157912783 0 0 0
785 1 1 0.5897 0.6631905260538019 3.2170925349975694 7.626507674485078 0 0 0
845 1 1 0.5897 7.386323673679899 1.0573058121770467 6.352852811828176 0 0 0
784 1 2 -1.1794 0.7883882644115235 3.104109895979519 6.6843051488573595 0 0 0
676 1 2 -1.1794 5.378119138961964 5.629388999494196 10.062631895031904 0 0 0
112 1 2 -1.1794 0.7257634260362418 5.971478930325653 10.471666067513627 0 0 0
176 1 1 0.5897 8.85227918626672 2.9201296652272433 9.878302841774268 0 0 0
844 1 2 -1.1794 7.4898655895400985 1.9903558495366018 6.166396462226344 0 0 0
677 1 1 0.5897 6.229670184854568 5.9258666682718655 9.741405380165512 0 0 0
685 1 2 -1.1794 5.55791403244096 5.931770382929792 6.019192739740728 0 0 0
166 1 2 -1.1794 2.833606264269108 2.048550823885833 13.039056920012031 0 0 0
167 1 1 0.5897 2.668470519969016 2.0738146911681916 12.096570802044326 0 0 0
457 1 2 -1.1794 5.110804621236785 3.482333954300181 14.041549817651237 0 0 0
458 1 1 0.5897 5.9320354979561305 3.1103894101028495 13.719930374608138 0 0 0
459 1 1 0.5897 4.428922808016818 2.9648244433280277 13.613293745652252 0 0 0
762 1 1 0.5897 5.353419866481095 5.109916729995128 13.252317653318807 0 0 0
594 1 1 0.5897 8.164676593796232 2.4815321599428315 13.36455198419806 0 0 0
168 1 1 0.5897 2.108644623015042 2.54169597499486 13.423014602467962 0 0 0
468 1 1 0.5897 0.9414877370983072 3.3225764198003747 14.94111845378692 0 0 0
466 1 2 -1.1794 0.8160646785564303 3.590627979298787 14.030836657175017 0 0 0
593 1 1 0.5897 7.320101329924247 1.228618730264882 13.456790927251053 0 0 0
592 1 2 -1.1794 7.325009363203838 2.1127948144587636 13.090335421663136 0 0 0
365 1 1 0.5897 0.8429790260084767 5.262309334392407 13.507210142387622 0 0 0
71 1 1 0.5897 5.18448164330705 3.2316136117543035 15.907251214512044 0 0 0
737 1 1 0.5897 2.906544069382622 0.2942801070999405 13.84356875258638 0 1 0
357 1 1 0.5897 7.368638670507278 2.1774144834131803 11.338806328034197 0 0 0
760 1 2 -1.1794 5.518181430521966 5.942786826981645 12.81041686704028 0 0 0
761 1 1 0.5897 5.413926101925198 5.745383329613618 11.879646134834557 0 0 0
754 1 2 -1.1794 7.734758788217111 2.056704549225996 17.414719160375018 0 0 0
133 1 2 -1.1794 0.8940978840589838 3.0520355414172813 16.85349151145586 0 0 0
135 1 1 0.5897 0.16801378970399322 2.618464295311007 17.30185003854382 0 0 0
755 1 1 0.5897 7.790227127523818 1.9018593199288856 18.357651036978567 0 0 0
290 1 1 0.5897 3.1041048711878068 0.8147911200902296 17.678750099352932 0 0 0
42 1 1 0.5897 7.630306455263571 0.9788680194849735 20.59500264562833 0 0 0
289 1 2 -1.1794 3.1579806462030695 1.7536627037981194 17.856752925079387 0 0 0
41 1 1 0.5897 6.992258640780833 2.348150232563354 20.497292424392977 0 0 0
143 1 1 0.5897 5.39452275864825 4.89526724740856 20.79406552998239 0 0 0
569 1 1 0.5897 2.412162301821776 2.3339189409347862 20.867092009759862 0 0 0
291 1 1 0.5897 2.343510041459476 2.1119082476555544 17.50390653940444 0 0 0
570 1 1 0.5897 3.260519304225408 1.8283112388435911 19.71973815609229 0 0 0
40 1 2 -1.1794 7.7506201670473525 1.8437118571498192 20.202985032206684 0 0 0
21 1 1 0.5897 0.961452143583434 4.000234515431412 20.974012992395807 0 0 0
667 1 2 -1.1794 5.555042948075299 3.1469804894654336 21.188058561738785 0 0 0
648 1 1 0.5897 0.6911350896860236 5.727564552500291 19.48582169939029 0 0 0
568 1 2 -1.1794 3.215881443558699 1.8506379238747814 20.675612038902056 0 0 0
756 1 1 0.5897 6.880243953208802 2.4693153807890647 17.28914378399428 0 0 0
669 1 1 0.5897 4.732794005266982 2.7230033257815918 20.942379899625013 0 0 0
278 1 1 0.5897 5.285917514413558 5.027337579859195 17.668945201120767 0 0 0
134 1 1 0.5897 0.912534140486698 3.9342535890473482 17.224226931228152 0 0 0
70 1 2 -1.1794 5.232067602675816 3.249343266727092 16.863074517672814 0 0 0
72 1 1 0.5897 4.5186354523937 2.679114685822056 17.149488507891473 0 0 0
19 1 2 -1.1794 0.9607365588140808 3.1084655116903344 21.321612499686942 0 0 0
646 1 2 -1.1794 0.6997104986722246 5.702434812794518 20.442623860760758 0 0 0
277 1 2 -1.1794 5.310042560018343 5.96315671009466 17.86828606814966 0 0 0
571 1 2 -1.1794 0.6942897598911079 5.626935590805602 17.765284092027052 0 0 0
144 1 1 0.5897 5.230350109105873 5.823343235403095 19.609412429242266 0 0 0
142 1 2 -1.1794 5.126524526028019 5.783824193200795 20.560122425981124 0 0 0
323 1 1 0.5897 7.262653237322867 0.40123324388533665 17.023034803641547 0 1 0
81 1 1 0.5897 2.7524866313913665 0.2203507007083516 20.947189714334236 0 1 0
253 1 2 -1.1794 3.013533545432915 6.898177630688149 2.276531404609115 0 0 0
123 1 1 0.5897 3.005404340764217 8.582777251082167 2.5704435541766157 0 0 0
121 1 2 -1.1794 2.9713264808511988 9.509296316240127 2.808086583319218 0 0 0
122 1 1 0.5897 2.8778553608127195 9.509448969063108 3.7606838896971326 0 0 0
44 1 1 0.5897 1.30821592773937 10.32614144338674 2.6308074756610655 0 0 0
218 1 1 0.5897 5.973161298381938 10.396581303834438 2.4895043289227643 0 0 0
417 1 1 0.5897 8.586726254192207 6.368186739476139 2.689452876985211 0 0 0
219 1 1 0.5897 4.459683378434116 10.432570073358434 2.4913670043184175 0 0 0
138 1 1 0.5897 4.659847126876315 6.157419942553414 2.8364852438886294 0 0 0
415 1 2 -1.1794 7.812529246104069 6.882049686955977 2.459753534350388 0 0 0
43 1 2 -1.1794 0.5174643082177474 10.8074690413853 2.3874524277653006 0 0 0
254 1 1 0.5897 2.904294608188482 6.951888258392055 1.3271329381476513 0 0 0
217 1 2 -1.1794 5.228993371606097 10.954783977613674 2.264117347923621 0 0 0
66 1 1 0.5897 7.535096369301904 9.582907219197608 3.988847454583423 0 0 0
65 1 1 0.5897 7.715053557232502 8.655468817232519 2.8059989619988026 0 0 0
64 1 2 -1.1794 7.6359369773312205 9.580914469729208 3.0370034194478683 0 0 0
416 1 1 0.5897 7.084787519056082 6.417440133515448 2.872938155169691 0 0 0
255 1 1 0.5897 2.239312635395989 6.42466572305077 2.5807601283179906 0 0 0
773 1 1 0.5897 9.011207513916506 10.563006011214759 2.4506443351238985 0 0 0
363 1 1 0.5897 5.121813731814344 11.242977039479973 0.443703100765683 0 0 1
396 1 1 0.5897 0.3999305100567711 10.902501234189922 0.5873600712732651 0 0 0
793 1 2 -1.1794 2.7683851341646766 9.704838058249727 5.4934507364897485 0 0 0
45 1 1 0.5897 0.6685822280885093 11.695870808699098 2.709920789866797 0 0 0
162 1 1 0.5897 7.390449800359234 7.266711605660205 0.6237906481915481 0 0 1
256 1 2 -1.1794 3.1078937773767032 9.561943235860928 9.9122176958133 0 0 0
12 1 1 0.5897 2.9359700236551722 8.049341160112217 6.28368558213407 0 0 0
10 1 2 -1.1794 3.072097269655552 7.1760056272299595 6.650892678486449 0 0 0
551 1 1 0.5897 0.5898425448243662 10.63649424543475 7.740433083157592 0 0 0
526 1 2 -1.1794 7.839291791609246 6.800174300197333 9.190382477279256 0 0 0
577 1 2 -1.1794 4.9829907668677675 10.743430188305663 6.578412086617101 0 0 0
145 1 2 -1.1794 7.900849260648964 7.179882458670464 6.5042273796335826 0 0 0
713 1 1 0.5897 8.168202850483123 10.115560752866957 6.011362401211282 0 0 0
13 1 2 -1.1794 0.6996547339883926 10.614119168261924 9.525501685785088 0 0 0
580 1 2 -1.1794 5.442425536755073 10.942820228045708 9.288410740796573 0 0 0
650 1 1 0.5897 3.0602370217203396 7.0479877655615235 8.40567465293669 0 0 0
822 1 1 0.5897 8.307684823275302 9.681767473829696 9.801224613504163 0 0 0
527 1 1 0.5897 7.7576160617429455 7.712811263770755 9.466967989166578 0 0 0
15 1 1 0.5897 1.5717284312838424 10.234537543734694 9.633272583516948 0 0 0
582 1 1 0.5897 5.465445570505007 10.905803880986744 8.332229884061261 0 0 0
820 1 2 -1.1794 7.56710538470957 9.262306707653801 10.23915768196159 0 0 0
581 1 1 0.5897 6.116677435609734 10.324024029149829 9.56882932561239 0 0 0
147 1 1 0.5897 7.962957670879667 7.16736098154524 7.459300384875579 0 0 0
649 1 2 -1.1794 3.0371702559461444 6.970254456416192 9.359406157532778 0 0 0
528 1 1 0.5897 8.618274160707745 6.480320281294222 9.64544617239099 0 0 0
712 1 2 -1.1794 7.366575100624533 9.667053292760613 5.742223499763284 0 0 0
258 1 1 0.5897 3.9358865250166133 9.920171207164435 9.592367213881484 0 0 0
579 1 1 0.5897 4.962463683415729 11.678063116956865 6.373208168194741 0 0 0
257 1 1 0.5897 3.130201198908833 8.64014309759413 9.655575817528348 0 0 0
146 1 1 0.5897 7.137342364677664 6.637600495605941 6.306248195678696 0 0 0
578 1 1 0.5897 5.79858673028455 10.429824308572456 6.187684632133905 0 0 0
714 1 1 0.5897 7.493593041599087 8.760429623271103 6.021493442427553 0 0 0
550 1 2 -1.1794 0.6514522757878531 10.708056999400345 6.787931945604446 0 0 0
651 1 1 0.5897 3.856270373163965 6.528888852098969 9.584079118825358 0 0 0
11 1 1 0.5897 2.35362569598302 6.652112517051794 6.29662109235888 0 0 0
795 1 1 0.5897 3.5205541732909778 10.104903506572446 5.929778324882936 0 0 0
794 1 1 0.5897 2.007318118471545 10.12780659949747 5.891042018932537 0 0 0
114 1 1 0.5897 1.5705268707304538 6.276308750000355 10.14049017454724 0 0 0
552 1 1 0.5897 0.6556730381593979 11.649923937362422 6.61782252631817 0 0 0
687 1 1 0.5897 4.781196474596864 6.446546836327092 6.238090977458382 0 0 0
14 1 1 0.5897 0.7944371900056878 11.520211895794962 9.818921057635826 0 0 0
826 1 2 -1.1794 7.695481357677804 7.110243608451287 13.9117885431676 0 0 0
827 1 1 0.5897 6.926887355625148 6.861591898360815 13.39831909399586 0 0 0
332 1 1 0.5897 3.266601995045902 7.99255576405721 13.573549368393932 0 0 0
797 1 1 0.5897 3.2806120204155693 9.5739263890501 11.768054640920349 0 0 0
796 1 2 -1.1794 3.2745288246604054 9.559871262967402 12.725103490153964 0 0 0
798 1 1 0.5897 2.3907396809212513 9.839615394768966 12.963600920004286 0 0 0
722 1 1 0.5897 4.763503361777303 10.034377413227379 13.46636164788527 0 0 0
261 1 1 0.5897 0.8634654687269538 10.71858592665812 14.749675822183884 0 0 0
723 1 1 0.5897 5.356092844277414 10.561697160220634 14.755749393028859 0 0 0
828 1 1 0.5897 7.371681146138287 7.180435740941318 14.80979802856721 0 0 0
259 1 2 -1.1794 0.828046717914729 10.643024443281151 13.796147528772675 0 0 0
331 1 2 -1.1794 3.421679049750002 7.197125148196893 14.08280882788056 0 0 0
225 1 1 0.5897 3.05342585901792 6.893710221293442 15.850632114224377 0 0 0
721 1 2 -1.1794 5.5321542265362815 10.483368050912441 13.81817330162438 0 0 0
475 1 2 -1.1794 8.017552749794637 9.542784817241438 12.836736809192377 0 0 0
476 1 1 0.5897 7.1984881088085 9.913816981413396 13.164868985257083 0 0 0
477 1 1 0.5897 7.945832182000753 8.605625604727914 13.017500049759708 0 0 0
333 1 1 0.5897 4.1876753117391665 6.7953143519927295 13.672941674498109 0 0 0
366 1 1 0.5897 1.7061792192817398 6.489185209687039 13.71037885004314 0 0 0
113 1 1 0.5897 0.7732634571444948 6.113388831742554 11.417065108855299 0 0 0
364 1 2 -1.1794 0.9242570994519426 6.1812306465532805 13.252144631732602 0 0 0
821 1 1 0.5897 7.79655521286487 9.279631041961498 11.168275125348124 0 0 0
445 1 2 -1.1794 0.657170575956572 10.94928062454384 16.597821511969624 0 0 0
141 1 1 0.5897 7.0304446684492365 9.072127023417073 21.007103320122063 0 0 0
361 1 2 -1.1794 4.828822899028392 11.308168027553403 21.421998202082268 0 0 0
9 1 1 0.5897 6.42058674703193 9.976162125684848 17.42208568266049 0 0 0
4 1 2 -1.1794 2.8042401432345936 7.007909882881491 21.436568376012545 0 0 0
627 1 1 0.5897 1.9132630124037873 9.915532221430439 17.525381624295193 0 0 0
394 1 2 -1.1794 0.44312137499106324 10.946542810203134 21.51937896217623 0 0 0
287 1 1 0.5897 8.608356632561058 10.621207509360888 21.042017271926017 0 0 0
140 1 1 0.5897 6.310716838722846 10.390313994634193 20.817480413609914 0 0 0
224 1 1 0.5897 2.757718441376512 7.803103317313216 17.0242244892074 0 0 0
690 1 1 0.5897 1.9618442762269634 10.137114881489024 20.90643306505225 0 0 0
625 1 2 -1.1794 2.73742727678141 9.514828398557642 17.80177982457019 0 0 0
688 1 2 -1.1794 2.771730606257804 9.773416501017614 20.548636411409078 0 0 0
680 1 1 0.5897 4.082997798203499 10.378810935770574 16.877484566063913 0 0 0
522 1 1 0.5897 7.310013156536502 8.129491990791113 17.018272721689005 0 0 0
689 1 1 0.5897 3.4530142047279915 10.385896603259955 20.82598932496726 0 0 0
161 1 1 0.5897 6.5199207892714 6.750841646605614 21.385008793040225 0 0 0
626 1 1 0.5897 2.8183189376743925 9.746146993642842 18.727050908018235 0 0 0
139 1 2 -1.1794 7.063965697655888 9.887724930314658 20.507318893528346 0 0 0
6 1 1 0.5897 2.7504318541304076 7.92675641603032 21.174073419410828 0 0 0
572 1 1 0.5897 1.4136752803870014 6.117592326870543 17.367882836923457 0 0 0
8 1 1 0.5897 7.145934359140752 9.695027197424825 18.72079031492617 0 0 0
7 1 2 -1.1794 7.257521868859883 9.66898336553061 17.77049518803251 0 0 0
160 1 2 -1.1794 7.2695720612243795 7.3187789665102425 21.562914717973214 0 0 0
5 1 1 0.5897 3.6016490172625844 6.684819040729913 21.017088156758682 0 0 0
681 1 1 0.5897 4.9874835709333825 11.574722890342553 17.08564500925977 0 0 0
521 1 1 0.5897 6.602175666134229 6.7922260796468 17.065911780529465 0 0 0
520 1 2 -1.1794 7.305235252780845 7.260918752667919 16.616221830248328 0 0 0
679 1 2 -1.1794 4.9174554821589 10.754672195921982 16.597026747100998 0 0 0
279 1 1 0.5897 4.533864257722158 6.320465665234601 17.436919612144106 0 0 0
647 1 1 0.5897 1.511585565699254 6.146608367993455 20.68708653548823 0 0 0
246 1 1 0.5897 8.771134808067933 10.580503383136287 17.320920532198116 0 0 0
711 1 1 0.5897 8.812326648775095 6.381644701122824 17.47826145631237 0 0 0
223 1 2 -1.1794 2.8552860993636906 6.880971462009721 16.78701134486393 0 0 0
446 1 1 0.5897 0.6753295285574391 11.779423217313857 17.0738753011119 0 0 0
462 1 1 0.5897 8.82511460372458 6.3874462541922945 21.219378886355067 0 0 0
200 1 1 0.5897 5.306133550121963 13.515382279450906 4.94102199125528 0 0 0
173 1 1 0.5897 4.553908181825978 14.006055714940791 2.87039348606808 0 0 0
172 1 2 -1.1794 5.396819467673502 13.60697401335988 3.085880542705325 0 0 0
374 1 1 0.5897 0.9101978963299651 13.203822263051217 4.264497641028747 0 0 0
558 1 1 0.5897 3.0265289152109363 15.04247376496714 1.6406513735424435 0 0 0
556 1 2 -1.1794 3.103107766458128 14.955427350883001 2.5907908672732742 0 0 0
557 1 1 0.5897 2.3124953708798275 14.483865620150588 2.853064379755717 0 0 0
478 1 2 -1.1794 7.682633213462049 15.01689338977714 2.210215674851027 0 0 0
174 1 1 0.5897 5.271580957720823 12.673891301587933 2.9134221354139074 0 0 0
293 1 1 0.5897 2.766214574170392 16.686019407186407 2.9112248506790275 0 0 0
479 1 1 0.5897 8.403515706404235 14.487832277847774 2.551678353092101 0 0 0
449 1 1 0.5897 7.457648947185314 16.618934114890507 2.8558853033160796 0 0 0
480 1 1 0.5897 6.892666893274124 14.581787699125663 2.5309246868909927 0 0 0
373 1 2 -1.1794 1.019281513737101 13.271647881558788 3.3159851659374247 0 0 0
317 1 1 0.5897 7.691482230614096 14.909021807078167 0.4583814890643747 0 0 0
375 1 1 0.5897 0.28383382175255173 13.812302418662048 3.027906149626365 0 0 0
308 1 1 0.5897 7.502800107982266 17.345554688973536 5.024068221264293 0 0 0
448 1 2 -1.1794 7.436287300248785 17.505989562542098 3.214719850499923 0 0 0
384 1 1 0.5897 2.9267733464490044 16.4773752213913 9.710215097072851 0 0 0
382 1 2 -1.1794 2.799254872835579 17.348696492936973 10.085220225797299 0 0 0
454 1 2 -1.1794 5.494194273928498 13.40698278021111 10.442672379024073 0 0 0
201 1 1 0.5897 5.927983928782249 13.92960341745941 6.257646035100266 0 0 0
811 1 2 -1.1794 3.1564959599155515 14.616939460100793 9.47124253390607 0 0 0
456 1 1 0.5897 5.552950224490072 12.566508068078818 9.988523152591032 0 0 0
813 1 1 0.5897 2.4780246636157157 13.996717614689649 9.73799760783126 0 0 0
17 1 1 0.5897 3.023457730376671 14.967902911526553 7.6711216846309815 0 0 0
766 1 2 -1.1794 0.8731865251646218 13.24086019271384 10.4518028691659 0 0 0
199 1 2 -1.1794 5.192452998655479 13.44081924240378 5.888488413084007 0 0 0
377 1 1 0.5897 6.922106259669316 14.41048349474871 9.746590605567444 0 0 0
656 1 1 0.5897 1.437938490292764 13.968611668319824 6.321242083206428 0 0 0
519 1 1 0.5897 8.185169079264826 14.36288138215646 6.32363346415613 0 0 0
812 1 1 0.5897 3.9704847507312695 14.241167283786432 9.80653535034973 0 0 0
18 1 1 0.5897 3.7966244764564987 14.55195827161698 6.43784196268943 0 0 0
376 1 2 -1.1794 7.654716758847967 14.968428797984503 9.485507825786692 0 0 0
16 1 2 -1.1794 3.002501210264626 15.008809724148696 6.7150545050838035 0 0 0
517 1 2 -1.1794 7.42163215088755 14.768651287825833 6.734202541936842 0 0 0
186 1 1 0.5897 7.3263074895351465 16.742316105677638 10.08856588410634 0 0 0
378 1 1 0.5897 7.653198423923364 14.93450005776167 8.52894027683902 0 0 0
518 1 1 0.5897 7.417937848015734 15.665602081567654 6.400222819799529 0 0 0
59 1 1 0.5897 9.049997852793897 13.997720689770542 9.91346538612014 0 0 0
239 1 1 0.5897 3.037066238723009 16.790819890843977 6.155792510082481 0 0 0
307 1 2 -1.1794 7.414686741605255 17.334054657365222 5.977110386704853 0 0 0
768 1 1 0.5897 0.13283203819289763 13.679906412817054 10.033111407240886 0 0 0
655 1 2 -1.1794 0.780323013696929 13.329920134822522 6.04597571292338 0 0 0
296 1 1 0.5897 7.245636703978925 14.875998879936613 14.674215426324475 0 0 0
232 1 2 -1.1794 2.6754114952764594 14.590393407038418 13.956749551038838 0 0 0
234 1 1 0.5897 2.7997226287527943 14.535869838019623 14.90424614409917 0 0 0
606 1 1 0.5897 2.760508428891756 16.254809770049462 13.286830848348762 0 0 0
427 1 2 -1.1794 4.959756839371424 13.137141866485457 13.168316711974096 0 0 0
233 1 1 0.5897 3.435832743622001 14.14043940727683 13.588662877258153 0 0 0
639 1 1 0.5897 1.287844433645447 13.65224004450056 13.373431936448918 0 0 0
429 1 1 0.5897 5.7513764822010405 13.640723803031637 13.357873751828222 0 0 0
428 1 1 0.5897 5.158066859033918 12.253168527483155 13.47712219232282 0 0 0
638 1 1 0.5897 0.5163586915878757 12.34977420625036 13.36978023152749 0 0 0
637 1 2 -1.1794 0.4331059045851599 13.279372825700968 13.1575693264354 0 0 0
295 1 2 -1.1794 7.162582914008813 14.763143234716773 13.72735412306547 0 0 0
270 1 1 0.5897 7.285082320532431 16.621590786871643 13.215418525657562 0 0 0
297 1 1 0.5897 8.012295571889933 14.419752216177656 13.451167959029316 0 0 0
49 1 2 -1.1794 7.165743113234836 14.71252712060091 16.434715111978115 0 0 0
268 1 2 -1.1794 7.212872001616571 17.567005239068656 13.084868925299418 0 0 0
605 1 1 0.5897 2.8638566664073277 17.024908613590476 11.987620176751047 0 0 0
604 1 2 -1.1794 2.8515204696339307 17.141287487954102 12.937610147319967 0 0 0
455 1 1 0.5897 5.280027062093327 13.176833807581204 11.34673883243845 0 0 0
767 1 1 0.5897 0.644877685243598 13.21891449089261 11.381089536738248 0 0 0
117 1 1 0.5897 8.797170176063707 13.898840028416755 20.35425951112213 0 0 0
664 1 2 -1.1794 2.9060251779046085 15.077816865504605 21.702484326706752 0 0 0
53 1 1 0.5897 0.7373276272862662 13.66962366721153 18.76177889416515 0 0 0
362 1 1 0.5897 4.930342772473479 12.234356029421866 21.203013236914412 0 0 0
825 1 1 0.5897 2.2657651996680825 14.122773662647875 17.201236849677212 0 0 0
452 1 1 0.5897 0.9788329187297629 12.543404115994015 20.819511469035206 0 0 0
125 1 1 0.5897 5.1311127197303374 13.435810303100366 18.717212072612913 0 0 0
124 1 2 -1.1794 5.142349700858128 13.117348921801254 17.814642634761388 0 0 0
684 1 1 0.5897 4.44398794771295 14.331504376092338 20.799634488795473 0 0 0
52 1 2 -1.1794 0.6732445431394145 13.437089116651961 17.835498040382593 0 0 0
666 1 1 0.5897 2.8132334005103066 15.919646621918751 21.256598305063658 0 0 0
316 1 2 -1.1794 7.542449110154142 14.780103131627126 21.408918077081076 0 0 0
716 1 1 0.5897 2.845946224423774 17.414135345219954 19.520303281830916 0 0 0
318 1 1 0.5897 7.531404394994221 15.664724746027064 21.043667075279174 0 0 0
665 1 1 0.5897 2.1810214937995247 14.54885033032993 21.36970578408472 0 0 0
584 1 1 0.5897 3.1225889156398727 16.28907895713335 17.25873536060094 0 0 0
683 1 1 0.5897 5.932087321572437 14.053226481209315 20.797127637168398 0 0 0
126 1 1 0.5897 5.7916059954680765 13.66603239023573 17.374630761436013 0 0 0
682 1 2 -1.1794 5.10977596488187 13.777594560261745 20.392109503575053 0 0 0
159 1 1 0.5897 7.306113144018782 17.38036108140269 19.39900506355089 0 0 0
51 1 1 0.5897 7.973777169759771 14.253859558882374 16.664758508259727 0 0 0
451 1 2 -1.1794 1.0242205799853017 13.474895422767073 20.604255069263207 0 0 0
50 1 1 0.5897 7.250543420248711 15.570784003138954 16.84979482474172 0 0 0
157 1 2 -1.1794 7.268101008489582 17.311200674926482 20.352921812286567 0 0 0
824 1 1 0.5897 3.778844475821386 14.123825366862299 17.151157335379633 0 0 0
610 1 2 -1.1794 7.3517380836897575 17.252519803418963 17.600789218064786 0 0 0
823 1 2 -1.1794 3.0087248471358627 14.549854775397897 16.7748483546289 0 0 0
715 1 2 -1.1794 2.800365130807718 17.591068489740792 20.459871678904964 0 0 0
453 1 1 0.5897 0.2047433746654943 13.83879200060182 20.939273966502306 0 0 0
583 1 2 -1.1794 2.9871243722635623 17.157778595123645 17.63702831624239 0 0 0
267 1 1 0.5897 5.894536626141234 22.051732286719236 2.5450565513267582 0 0 0
696 1 1 0.5897 1.402780351058993 21.910474355459364 2.705082471791155 0 0 0
266 1 1 0.5897 4.388425889986343 21.903863474422607 2.504175634937643 0 0 0
265 1 2 -1.1794 5.1812587526083895 21.48559424357216 2.83983132020266 0 0 0
344 1 1 0.5897 1.062498696222777 18.501371868249585 2.370803639834226 0 0 0
228 1 1 0.5897 5.064498199051589 19.67804684728462 2.4532854317487742 0 0 0
345 1 1 0.5897 0.26272414057653165 19.155529861247167 1.2643464294854119 0 0 0
817 1 2 -1.1794 7.512405083300001 22.68242685367254 2.067639955033827 0 0 0
249 1 1 0.5897 5.1504546743842345 21.553797401305154 4.660363824878596 0 0 0
226 1 2 -1.1794 5.093139519896501 18.782394232154836 2.1170366729252783 0 0 0
187 1 2 -1.1794 2.939225853426043 22.689665719587175 1.9733593170960626 0 0 0
695 1 1 0.5897 0.5681315211523952 20.65446384061513 2.837049498733007 0 0 0
694 1 2 -1.1794 0.6679156432797593 21.53767468981313 3.192105609822933 0 0 0
818 1 1 0.5897 8.191142277286287 22.075328679091825 2.3624587788448728 0 0 0
343 1 2 -1.1794 0.295462758866166 19.052454352226505 2.2154065313348745 0 0 0
189 1 1 0.5897 2.8841832162592853 22.509967826038682 1.034819364329699 0 0 0
413 1 1 0.5897 0.6070927694213601 21.560804989423474 5.008851243616885 0 0 0
227 1 1 0.5897 4.234729031678574 18.417706455696575 2.332315543623652 0 0 0
450 1 1 0.5897 6.636486104554846 17.890662938489406 2.856187806005813 0 0 0
602 1 1 0.5897 5.199738426087146 18.867439060223354 0.3073854158558355 0 0 0
498 1 1 0.5897 7.583974445189005 22.66425136248578 0.3194690874219179 0 0 0
321 1 1 0.5897 8.852029317605497 18.349014477082967 2.3202186870000454 0 0 0
292 1 2 -1.1794 2.6303393310350978 17.629746833683818 2.994803081181767 0 0 0
294 1 1 0.5897 2.686321295897165 17.797885382462567 3.935431419628829 0 0 0
247 1 2 -1.1794 5.186233204372963 21.485538995713668 5.614426853537702 0 0 0
555 1 1 0.5897 5.040148202982729 20.40453958916182 9.878854009453656 0 0 0
405 1 1 0.5897 0.47919040288943454 19.614239836134473 9.770119139097504 0 0 0
87 1 1 0.5897 8.230786072261246 22.067868349429986 10.108108329032357 0 0 0
37 1 2 -1.1794 2.8360992833094385 22.684780934240493 9.18052432626373 0 0 0
86 1 1 0.5897 7.53030677781405 22.4054940300512 8.809218863898272 0 0 0
340 1 2 -1.1794 0.6130488200293488 18.92882193582718 6.702422527848447 0 0 0
32 1 1 0.5897 8.12886459528568 22.061882833051882 6.5573802685244615 0 0 0
404 1 1 0.5897 1.3088860731299825 18.348059036048305 9.770170452429827 0 0 0
39 1 1 0.5897 3.553378616625357 22.2195741377283 9.610959606681543 0 0 0
553 1 2 -1.1794 5.007004401229239 21.275155250939683 10.275110572305879 0 0 0
701 1 1 0.5897 2.994363878503685 22.704859861852803 7.473627059653651 0 0 0
342 1 1 0.5897 0.7513258095760449 18.878420207351496 7.648217373494066 0 0 0
387 1 1 0.5897 5.287177594722184 19.70836093363127 6.269384252036857 0 0 0
102 1 1 0.5897 5.2655429825298805 18.676190925626187 8.446573453204389 0 0 0
700 1 2 -1.1794 2.914964267159203 22.768118578639253 6.521852575092053 0 0 0
385 1 2 -1.1794 5.212371149722769 18.835878621440173 6.655756969880063 0 0 0
702 1 1 0.5897 1.996261380432746 22.566873356455005 6.343769656538533 0 0 0
38 1 1 0.5897 2.0498559939300156 22.2017636065557 9.434892810666636 0 0 0
101 1 1 0.5897 5.7849695215377785 18.30351200504827 9.818834755908197 0 0 0
341 1 1 0.5897 1.3283117945106893 18.414901679660318 6.327617253939986 0 0 0
33 1 1 0.5897 6.61878166342712 21.962732584913887 6.51586644061515 0 0 0
414 1 1 0.5897 0.6582362890542287 20.736916383237727 6.277827632376018 0 0 0
85 1 2 -1.1794 7.447681519387076 22.493200801503626 9.758775468145863 0 0 0
554 1 1 0.5897 5.795684346746306 21.71401696907379 9.95639588444388 0 0 0
184 1 2 -1.1794 7.300897782750021 17.65479849419082 10.37634720974648 0 0 0
403 1 2 -1.1794 0.5103102042222062 18.729733309992213 9.405749724417014 0 0 0
31 1 2 -1.1794 7.336714677356754 22.390840103737908 6.982220421755015 0 0 0
100 1 2 -1.1794 5.018881884653967 18.662773552437237 9.371328225317122 0 0 0
386 1 1 0.5897 6.016192126760455 18.387437565326074 6.393116288265152 0 0 0
309 1 1 0.5897 8.211093300916794 17.757948804775403 6.296875132681722 0 0 0
94 1 2 -1.1794 0.6322369383186792 21.387728725594265 10.23174570319418 0 0 0
185 1 1 0.5897 8.114399093833878 18.034026814781576 10.043775135350506 0 0 0
248 1 1 0.5897 4.388254675304126 21.91956994559837 5.916171786066844 0 0 0
383 1 1 0.5897 3.5352020503252164 17.862837829456524 9.753216142046659 0 0 0
412 1 2 -1.1794 0.4434436050687502 21.610361309136252 5.950631720957836 0 0 0
240 1 1 0.5897 3.662333343403917 18.16738302111152 6.08021260490753 0 0 0
238 1 2 -1.1794 2.8757917420677734 17.678909575229795 5.837402276495732 0 0 0
380 1 1 0.5897 0.9666041355294371 20.41971129449493 13.125503299725478 0 0 0
88 1 2 -1.1794 5.0276608672172145 21.270938041379615 12.983333821683827 0 0 0
381 1 1 0.5897 1.5346345397889336 21.788896336715602 13.432470884897006 0 0 0
90 1 1 0.5897 5.0802605107072605 20.35110053552117 13.24257349336004 0 0 0
763 1 2 -1.1794 4.93987197572444 18.806950127611977 14.066714149803536 0 0 0
738 1 1 0.5897 3.681945349195242 22.2081750832737 13.9731504860362 0 0 0
89 1 1 0.5897 4.982688550722128 21.248701149554016 12.027471991968243 0 0 0
764 1 1 0.5897 4.184316072690534 18.25402572823446 13.867755122019195 0 0 0
474 1 1 0.5897 5.316672480925473 18.616138151353148 15.929832892957275 0 0 0
765 1 1 0.5897 5.692966549599574 18.30628444959612 13.753066417407103 0 0 0
350 1 1 0.5897 2.672361096277317 22.596186182796096 16.203986664352936 0 0 0
736 1 2 -1.1794 2.9077408184074547 22.663069951025037 14.304622700412606 0 0 0
787 1 2 -1.1794 7.274941726143078 22.729842743472616 14.052734614010523 0 0 0
503 1 1 0.5897 1.5423643331164667 18.209611614131852 13.435759928331063 0 0 0