LAMMPS data file via write_data, version 30 Jul 2021, timestep = 13250000

1296 atoms
2 atom types
864 bonds
1 bond types
432 angles
1 angle types

-10.602050407945393 12.582050407945394 xlo xhi
-9.121674725960919 12.111672725960918 ylo yhi
0.12653510251908529 21.733463897488317 zlo zhi
-9.072400644376376 1.9187825884232124 2.977173611868232 xy xz yz

Masses

1 1.008
2 15.999

Pair Coeffs # lj/cut/tip4p/long/omp

1 0 0
2 0.21084 3.1668

Bond Coeffs # harmonic/omp

1 450 0.9572

Angle Coeffs # harmonic/omp

1 55 104.52

Atoms # full

315 105 1 0.5897 -8.776420622854449 -5.283773041345295 5.366611752747047 1 1 0
298 100 2 -1.1794 -6.171252086661485 -7.283930955160329 4.230019069197481 1 1 0
280 94 2 -1.1794 -9.538818846569804 -4.344044785522543 1.2152671608342187 1 1 0
299 100 1 0.5897 -6.694380709885105 -8.085462557431152 4.2245137131446056 1 1 0
270 90 1 0.5897 -8.614528004085834 -7.296526573983931 2.052701799876689 1 1 0
163 55 2 -1.1794 -7.276410928705941 -8.005599496396382 0.7795004193864326 1 1 0
164 55 1 0.5897 -6.490105260889829 -8.453408518343705 1.09165401640566 1 1 0
269 90 1 0.5897 -9.252431650510525 -5.929072954148309 2.174143347957855 1 1 0
268 90 2 -1.1794 -9.211881600381833 -6.7857475960951446 2.599038637597505 1 1 0
282 94 1 0.5897 -10.33190815059717 -3.8151699191539903 1.3021134429081425 1 1 0
324 108 1 0.5897 -7.174447629286309 -4.3277006865650005 3.4684142081615525 1 1 0
73 25 2 -1.1794 -8.361069689097807 -3.5816286271175963 4.58341121376098 1 0 0
314 105 1 0.5897 -8.859996751032515 -6.463286497860084 4.421415557711572 1 1 0
300 100 1 0.5897 -5.266004694549549 -7.587568856139551 4.1620198419073775 1 1 0
323 108 1 0.5897 -6.52174582614439 -5.691252862517674 3.389039501655661 1 1 0
313 105 2 -1.1794 -8.888436166936938 -6.2341706370215 5.35032618095012 1 1 0
322 108 2 -1.1794 -6.511113706553126 -4.822537427422448 2.9874289340748654 1 1 0
260 87 1 0.5897 -7.02497028955686 -6.301391388086502 0.3424467045779912 1 1 0
281 94 1 0.5897 -8.823847022278573 -3.7076699633695585 1.222642070777831 1 1 0
261 87 1 0.5897 -6.700436369091816 -5.058414687585298 1.1432672558791515 1 1 0
275 92 1 0.5897 -10.577541477412748 -7.697971866433661 3.416833166782911 1 1 0
259 87 2 -1.1794 -6.814275301207735 -5.372708979021562 0.24636269055855603 1 1 0
429 143 1 0.5897 -6.358479756330478 -6.866842645717771 8.76516007719501 1 0 0
428 143 1 0.5897 -6.542424802378212 -6.815540965618634 10.26692407992904 1 0 0
427 143 2 -1.1794 -5.883128697972465 -6.710012075401245 9.581043106423472 1 0 0
419 140 1 0.5897 -8.682357535977355 -5.301249197309233 8.795664683065747 1 0 0
418 140 2 -1.1794 -9.398068338235268 -5.801199912398586 9.18812921593476 1 0 0
413 138 1 0.5897 -7.554906795415164 -3.4590005744076233 7.596425039925237 1 0 0
627 209 1 0.5897 -10.307738131088902 -6.7662220441204415 6.422203081963999 1 1 0
420 140 1 0.5897 -8.99375006865311 -6.262453179500676 9.922935200292349 1 0 0
618 206 1 0.5897 -7.842425837055178 -7.149748345639447 6.711876040501714 1 1 0
350 117 1 0.5897 -7.031986552127776 -3.9625936036228095 9.796725463957987 0 0 0
414 138 1 0.5897 -6.816551639992346 -4.7685658852176065 7.418902023051561 1 0 0
412 138 2 -1.1794 -7.48066744347083 -4.3413116208363345 7.959860647732368 1 0 0
349 117 2 -1.1794 -6.960722869084728 -3.764573225127239 10.730476148317562 0 0 0
616 206 2 -1.1794 -7.347703146753398 -7.64202637798992 7.366920654807145 1 1 0
351 117 1 0.5897 -6.856549117159874 -2.8138425440184776 10.766898943711649 0 0 0
626 209 1 0.5897 -10.42542332685204 -6.536530212052717 7.913898933938982 1 1 0
631 211 2 -1.1794 -5.585666077291353 -5.38006356976191 6.216982710987071 1 1 0
408 136 1 0.5897 -11.024817657677634 -4.8961321543265965 9.487346900956993 1 0 0
633 211 1 0.5897 -5.923062126442441 -6.036617343092402 5.607671008404201 1 1 0
684 228 1 0.5897 -8.20333534033949 -6.353742134147396 14.49327615882939 0 0 0
740 247 1 0.5897 -10.694359972898424 -3.311758502095591 11.88310669447345 1 0 0
652 218 2 -1.1794 -5.62885470038009 -5.277085498752234 12.702776493599513 0 0 0
682 228 2 -1.1794 -7.603830986766553 -6.748288421139044 13.859918696920756 0 0 0
780 260 1 0.5897 -7.458675530042785 -3.984488528214559 15.165003801411952 0 0 0
779 260 1 0.5897 -7.261034789928755 -2.7972650616455876 14.24686642383338 0 0 0
778 260 2 -1.1794 -7.876151595705827 -3.5013551768498834 14.45193932486808 0 0 0
768 256 1 0.5897 -9.326051476859202 -2.516672559869992 14.67135532500009 0 0 0
654 218 1 0.5897 -6.024371475523452 -4.647844829466829 12.099648672264165 0 0 0
653 218 1 0.5897 -6.373001196827992 -5.73445093196533 13.094300035571557 0 0 0
661 221 2 -1.1794 -9.151729684766588 -4.477926674981137 12.254920569958834 0 0 0
766 256 2 -1.1794 -10.14849882311744 -2.027436472838021 14.693266800562775 0 0 0
662 221 1 0.5897 -8.651350716329514 -4.292590145445939 13.04958507997565 0 0 0
663 221 1 0.5897 -8.55982544177963 -4.246374509767129 11.53920675210744 0 0 0
729 243 1 0.5897 -8.101692577150166 -6.880715308462996 12.07144182798983 1 0 0
788 263 1 0.5897 -4.85116068343538 -4.417928336449377 15.573202730272952 0 0 0
739 247 2 -1.1794 -11.543850848709933 -2.926042808262679 11.668949991402199 1 0 0
767 256 1 0.5897 -10.827807108623396 -2.701042798736692 14.724792935975513 0 0 0
727 243 2 -1.1794 -8.082549988184576 -7.214506334644458 11.17456460188243 1 0 0
789 263 1 0.5897 -4.712968287525951 -4.52348556859033 14.06936801021774 0 0 0
1097 366 1 0.5897 -8.83556631350939 -5.575186548528903 18.608121323807612 0 0 0
1130 377 1 0.5897 -7.341694287415921 -1.4923846200464297 18.575451882619866 0 0 0
1096 366 2 -1.1794 -8.756331557731643 -6.473396617042724 18.929070537449647 0 0 0
1121 374 1 0.5897 -4.740166904072249 -3.4323793787219223 18.5399799941554 0 0 0
1152 384 1 0.5897 -6.833869928485202 -3.740788472791908 19.75153862540224 0 0 0
1225 409 2 -1.1794 -8.186044210134426 -3.2309689496671083 20.91615742178347 0 0 0
1227 409 1 0.5897 -9.008616673658487 -2.8314801210189433 20.633228603851062 0 0 0
1109 370 1 0.5897 -8.787562950376964 -3.1110356123667007 17.822539284496575 0 0 0
1108 370 2 -1.1794 -9.35974424420991 -3.877338019305384 17.7831448851712 0 0 0
1089 363 1 0.5897 -6.2961856799534 -4.5302484552019 17.43882932848106 0 0 0
1219 407 2 -1.1794 -10.395839443195497 -1.8213304017731407 20.189455393305316 0 0 0
1129 377 2 -1.1794 -7.709982755368004 -1.7490008623672555 17.73004426796315 0 0 0
1248 416 1 0.5897 -5.794780520371484 -1.590617392778289 20.560303459556213 0 0 0
1151 384 1 0.5897 -6.091830668119313 -5.05225921602705 19.6064010963917 0 0 0
1150 384 2 -1.1794 -6.210612914737672 -4.1995528254215895 19.188239638339283 0 0 0
1088 363 1 0.5897 -6.515578576832031 -5.65561162815583 16.450362527853827 0 0 0
1131 377 1 0.5897 -6.961366029111077 -1.753183144581251 17.133538211732986 0 0 0
1110 370 1 0.5897 -10.241205636391577 -3.5254782669860063 17.90764012361531 0 0 0
1142 381 1 0.5897 -8.532506050113561 -6.162021449832054 20.737577070008726 0 0 0
1087 363 2 -1.1794 -6.424490573738779 -4.704494138364355 16.506436349445693 0 0 0
1226 409 1 0.5897 -7.841288509581092 -2.629121856250963 21.575768037262755 0 0 0
1143 381 1 0.5897 -8.431391761280342 -4.9029740140924565 21.571951304003395 0 0 0
1141 381 2 -1.1794 -8.475393174380779 -5.856440626538861 21.64285908466665 0 0 0
165 55 1 0.5897 -5.644954759683288 -5.544750869170636 21.63342148201074 1 1 -1
758 253 1 0.5897 -9.63598001237325 -5.067807959060772 16.459077467057085 0 0 0
59 20 1 0.5897 -13.519867560088393 -0.8046473326636558 3.3783507093389837 1 0 0
69 23 1 0.5897 -11.104151115044841 -2.4493701759241153 3.0725663601850477 1 0 0
272 91 1 0.5897 -9.286615686727558 -1.1279036999601546 1.2589043154154287 1 1 0
271 91 2 -1.1794 -10.130202626872222 -0.8306718766295944 0.9178860450522155 1 1 0
301 101 2 -1.1794 -7.781664493586138 -2.2042450529613387 1.6149711295652778 1 1 0
256 86 2 -1.1794 -12.112891851782582 -3.317767944684187 1.640729836578986 1 1 0
258 86 1 0.5897 -12.652294335837377 -2.654254216517775 1.2106767115802777 1 1 0
83 28 1 0.5897 -9.541542139420686 -0.8471337711231648 4.228356485900164 1 0 0
67 23 2 -1.1794 -10.687358570450986 -2.236986260080423 3.907663006000761 1 0 0
97 33 2 -1.1794 -11.713055603439397 0.8386083554795878 5.407496703095888 1 0 0
68 23 1 0.5897 -11.321020969905003 -2.5140948560584597 4.569407878751481 1 0 0
52 18 2 -1.1794 -12.175339143213776 0.2012105367713417 2.7014989098375133 1 0 0
98 33 1 0.5897 -11.792919143590822 0.47902143449520906 4.524041181587011 1 0 0
53 18 1 0.5897 -12.206185245556702 1.027085433641112 2.218741081184572 1 0 0
54 18 1 0.5897 -11.470715300089045 -0.2944299278138569 2.284287147645111 1 0 0
82 28 2 -1.1794 -8.990296180672514 -0.06795108352235957 4.15655645716921 1 0 0
107 36 1 0.5897 -9.086525911407573 1.6006405229833334 3.3484520122865087 1 0 0
84 28 1 0.5897 -8.094699959462428 -0.40574228924247 4.165941327750772 1 0 0
44 15 1 0.5897 -9.79392009847633 0.9074830421674793 0.4033118805023422 1 0 0
99 33 1 0.5897 -11.56262624321675 1.7742182926481558 5.2730593622838935 1 0 0
74 25 1 0.5897 -8.058759499322125 -3.036711278045961 5.309937555083856 1 0 0
75 25 1 0.5897 -9.178165453684322 -3.1716367819009683 4.299641770588145 1 0 0
273 91 1 0.5897 -10.280296911126918 -1.3724731315100884 0.1432341440713644 1 1 0
527 176 1 0.5897 -11.925666476545521 1.9598900682790426 8.75006861354805 1 0 0
526 176 2 -1.1794 -12.598516933292506 1.5170813011266908 9.267183450188364 1 0 0
426 142 1 0.5897 -8.76350972435069 -1.5259859255260597 6.854901137757139 1 0 0
435 145 1 0.5897 -7.647126402635872 -0.6767992897325961 9.896896937864167 0 0 0
424 142 2 -1.1794 -7.887192499319715 -1.8969341750740192 6.75126495949815 1 0 0
402 134 1 0.5897 -10.934052113340229 -0.2764514816634538 6.493053829753768 1 0 0
401 134 1 0.5897 -11.195375789961307 -1.2983467265170248 7.5788888079036685 1 0 0
400 134 2 -1.1794 -10.489535901812573 -0.8914211903852376 7.076464046569074 1 0 0
537 179 1 0.5897 -9.452675972033344 0.019106564141278426 8.559811236981785 1 0 0
536 179 1 0.5897 -9.846277649210249 0.009625196371569444 10.021575016364942 1 0 0
535 179 2 -1.1794 -9.110707817019462 0.19220931783933004 9.43689949267236 1 0 0
528 176 1 0.5897 -12.114888768624777 0.885940388898991 9.800021580570633 1 0 0
411 137 1 0.5897 -13.224883729822004 0.5575490322013081 6.347734280765971 1 0 0
443 148 1 0.5897 -8.109187800762317 1.8039175978757207 9.579611922685885 0 0 0
425 142 1 0.5897 -7.29478061296242 -1.1817818454520674 6.983182162621808 1 0 0
433 145 2 -1.1794 -6.815526358029713 -0.9982055280009199 10.24532655425356 0 0 0
415 139 2 -1.1794 -8.778323245633946 1.7734345695945652 6.3489811504817535 1 0 0
410 137 1 0.5897 -13.46598590216884 0.6899570297383057 7.8363937084763045 1 0 0
417 139 1 0.5897 -9.19474039112015 1.1759908470613532 5.727825502402569 1 0 0
790 264 2 -1.1794 -10.690578222861593 0.4584573651888064 13.632337872991235 0 0 0
769 257 2 -1.1794 -12.424296782948613 2.830967196605018 12.498969074814418 0 0 0
762 254 1 0.5897 -9.081860228951891 2.5278895476410685 11.962422486887434 0 0 0
761 254 1 0.5897 -9.3173266348089 1.330114062611166 12.857653692175127 0 0 0
760 254 2 -1.1794 -8.672347546525343 2.0071897094186717 12.653313697302835 0 0 0
771 257 1 0.5897 -11.786802857701378 2.9890611465271206 11.80266463028444 0 0 0
792 264 1 0.5897 -11.368627617186762 0.7801979343407854 14.226450717666017 0 0 0
865 289 2 -1.1794 -12.567096591356105 1.344485050730679 15.401741982838319 0 0 0
837 279 1 0.5897 -11.114608842824337 0.0462341723118449 11.881254240977071 1 0 0
791 264 1 0.5897 -10.492895861801536 -0.42297536154761595 13.948675583193557 0 0 0
896 299 1 0.5897 -7.982795100671941 2.75729745756918 15.669622898871834 0 0 0
835 279 2 -1.1794 -11.328715581277384 -0.28014060322734124 11.007286871840023 1 0 0
1101 367 1 0.5897 -9.976760234383313 -0.8494583960953612 16.136104305553502 0 0 0
836 279 1 0.5897 -11.548243119976336 -1.2018823909674472 11.142473529458204 1 0 0
770 257 1 0.5897 -11.969689787269038 3.083918061798318 13.302437954842377 0 0 0
866 289 1 0.5897 -12.330662079639298 1.9385903362006953 16.11399168534963 0 0 0
888 296 1 0.5897 -10.530750148155475 3.367358462842139 15.202799833489985 0 0 0
1009 337 2 -1.1794 -10.997856234502999 3.819855573178094 20.852769158945836 0 -1 0
1260 420 1 0.5897 -9.84214833715602 3.258985552777297 19.646671862472793 0 0 0
1205 402 1 0.5897 -11.896965670786171 1.389926612359508 18.440700614551595 0 0 0
1259 420 1 0.5897 -9.072770467193166 1.9986949175620907 19.31292718278343 0 0 0
1258 420 2 -1.1794 -9.186728936184664 2.909783395705732 19.042753945614944 0 0 0
1218 406 1 0.5897 -13.173126066972099 3.388915279391007 17.69826344577302 0 0 0
1011 337 1 0.5897 -11.755236683767123 4.166293478581155 20.380955477929383 0 -1 0
1246 416 2 -1.1794 -6.270885059265717 -1.0709257401728927 19.91268200883955 0 0 0
1236 412 1 0.5897 -7.800244786594753 0.02176619096149146 20.117877945663093 0 0 0
1216 406 2 -1.1794 -12.300822201093437 2.995607031753927 17.67226247845658 0 0 0
1235 412 1 0.5897 -9.281428492658755 -0.2584722143216105 20.25808837155101 0 0 0
1234 412 2 -1.1794 -8.639536316310442 0.45110638979910256 20.283765734309778 0 0 0
1099 367 2 -1.1794 -9.723479064329524 -0.22980929988606746 16.820239472658876 0 0 0
1250 417 1 0.5897 -11.735486452580075 0.9137415980510148 20.51379711717671 0 0 0
1206 402 1 0.5897 -11.058696855482925 0.1966671178601409 18.03431826371922 0 0 0
1217 406 1 0.5897 -11.700705396354742 3.7369317639986726 17.752700622574586 0 0 0
1197 399 1 0.5897 -9.513132635866445 2.8263183673693195 17.28216794627463 0 0 0
1100 367 1 0.5897 -8.934083987277976 -0.6086736934550814 17.206989595159833 0 0 0
1196 399 1 0.5897 -9.649250387048598 1.563922357116427 16.457888888668805 0 0 0
1204 402 2 -1.1794 -11.641086560227285 0.5126034282053755 18.725136827177135 0 0 0
1249 417 2 -1.1794 -11.653049602524549 1.2135266432574934 21.41906592290219 0 0 0
1195 399 2 -1.1794 -9.618252359364531 2.517538347982436 16.3822882535261 0 0 0
1251 417 1 0.5897 -11.513065958215712 2.1576323209440105 21.34739446908888 0 0 0
1229 410 1 0.5897 -7.746745711059681 3.7285183118589007 18.457882700657464 0 0 0
40 14 2 -1.1794 -14.937989208680934 3.8861915418200983 2.026632829543805 1 0 0
177 59 1 0.5897 -14.023820850235577 4.415600688279433 3.6849752717595066 1 0 0
42 14 1 0.5897 -15.339343836974603 4.343624053126211 1.2878256764643192 1 0 0
108 36 1 0.5897 -9.949628906338372 2.8196745255874553 3.5948092304612818 1 0 0
175 59 2 -1.1794 -13.516183967271783 4.785784574241779 4.407111942484474 1 0 0
55 19 2 -1.1794 -13.149417921292674 6.172062825121495 0.7954790495291885 1 0 0
56 19 1 0.5897 -12.26506677242483 5.856521077169065 0.9815634601174414 1 0 0
66 22 1 0.5897 -13.421740263942546 3.0913290101506465 1.384356366462888 1 0 0
65 22 1 0.5897 -11.916596459336525 3.2534666525057467 1.364994581110566 1 0 0
64 22 2 -1.1794 -12.607555736087003 2.593158706920619 1.3123539840068301 1 0 0
45 15 1 0.5897 -9.575214708116196 2.141958512586962 1.2517543058804994 1 0 0
85 29 2 -1.1794 -10.912674266903435 4.781522375337325 1.449416972138612 1 0 0
191 64 1 0.5897 -12.388936957773371 6.403967309760283 4.240486504157003 1 0 0
43 15 2 -1.1794 -9.600608906831757 1.8429231791675704 0.3428493141631159 1 0 0
183 61 1 0.5897 -12.020365219210138 3.899336050138844 4.485978763466644 1 0 0
181 61 2 -1.1794 -11.201054414868294 3.5039240279324666 4.783708714426493 1 0 0
176 59 1 0.5897 -14.12560169805257 4.80230690600839 5.145061641058486 1 0 0
162 54 1 0.5897 -14.366819235133976 6.650549002583858 2.2468346562423287 1 0 0
167 56 1 0.5897 -16.55295043719606 6.255109804610781 3.3760271139596973 1 0 0
57 19 1 0.5897 -13.489582972654397 5.5613231966076295 0.14168055729801332 1 0 0
190 64 2 -1.1794 -11.76214571171613 7.127217774615605 4.226113509625816 1 0 0
508 170 2 -1.1794 -13.37563447416239 6.506967395903411 7.434308627111355 1 0 0
645 215 1 0.5897 -12.162291420260276 7.281966175194867 8.740798660334525 1 0 0
644 215 1 0.5897 -12.635446031259221 7.026627749039054 10.155963762910545 1 0 0
643 215 2 -1.1794 -11.883032837879432 7.340637906757159 9.6544521223871 1 0 0
509 170 1 0.5897 -14.158890290022498 6.044084008771883 7.731769567872608 1 0 0
457 153 2 -1.1794 -10.1675160915471 3.4532002924815437 10.797763279683494 0 0 0
532 178 2 -1.1794 -10.919239205856972 5.386838576968815 6.860004194903997 1 0 0
543 181 1 0.5897 -10.530209782646375 6.411147639034043 9.985775010822493 0 0 0
510 170 1 0.5897 -13.676174853598258 7.037395527148103 6.6964311084668156 1 0 0
534 178 1 0.5897 -11.77982979013468 5.804167942384437 6.8986538369268695 1 0 0
521 174 1 0.5897 -10.68579691119472 3.8854159859045545 7.872731754335248 1 0 0
458 153 1 0.5897 -10.401834505393804 3.1994299638883597 9.905080333293615 0 0 0
459 153 1 0.5897 -9.902681809864 4.370063286212222 10.724916932389586 0 0 0
636 212 1 0.5897 -15.020566587691592 7.574684071449454 9.712701486457734 1 0 0
518 173 1 0.5897 -16.531653733439043 7.770697094673729 7.829155773595498 1 0 0
520 174 2 -1.1794 -10.68808470481263 2.942725847259389 8.03819347497458 1 0 0
182 61 1 0.5897 -10.96401758418867 4.002687719851529 5.565511499827361 1 0 0
522 174 1 0.5897 -9.97976675078208 2.601538328891518 7.492189229982151 1 0 0
887 296 1 0.5897 -10.000137141679986 4.182356364698672 14.042666657295134 0 0 0
874 292 2 -1.1794 -13.352829359159763 5.025914389585568 15.157285135905209 0 0 0
876 292 1 0.5897 -12.467539988032025 4.66690854783306 15.09673370887173 0 0 0
848 283 1 0.5897 -13.982448163054833 3.58343257079348 12.168406003842302 1 0 0
945 315 1 0.5897 -14.30026128116581 6.913099126941987 11.999017493030678 1 0 0
869 290 1 0.5897 -12.574119845777595 8.07840586434121 13.35293515756977 0 0 0
900 300 1 0.5897 -14.741406296348726 7.68466254474594 14.329650091185943 0 0 0
899 300 1 0.5897 -13.90099222317192 6.432219590140697 14.200151658461293 0 0 0
898 300 2 -1.1794 -14.203940236876987 7.194736544331516 13.707312012326192 0 0 0
943 315 2 -1.1794 -14.20772324463054 6.460174131761606 11.160887314512019 1 0 0
886 296 2 -1.1794 -10.80214118658442 3.9902048796603946 14.528606772365595 0 0 0
944 315 1 0.5897 -14.303949436024254 5.532845465334029 11.377371427895591 1 0 0
875 292 1 0.5897 -13.926836630917862 4.264266722426859 15.076221209888677 0 0 0
649 217 2 -1.1794 -15.66818033853873 8.415405514256591 15.690239888871849 0 -1 0
1018 340 2 -1.1794 -11.826686638264892 7.318552944108536 20.54222141347705 0 -1 0
1019 340 1 0.5897 -12.43801443362989 6.614395349463477 20.32628543726037 0 -1 0
1020 340 1 0.5897 -10.96397390901846 6.904846595417055 20.513220067768458 0 -1 0
1034 345 1 0.5897 -14.619554994829777 7.77669882409004 20.777190585725318 0 -1 0
1237 413 2 -1.1794 -10.69160069925556 5.236522564610015 17.778054834972913 0 0 0
1010 337 1 0.5897 -10.832500782612534 4.460334009737327 21.544574810699903 0 -1 0
1030 344 2 -1.1794 -9.327441692469257 6.188039595484037 20.052598859922732 0 -1 0
1032 344 1 0.5897 -8.837350486060657 5.850869613305589 20.802477519945167 0 -1 0
989 330 1 0.5897 -14.854423254353858 8.503625020194004 18.589638315334245 0 -1 0
1207 403 2 -1.1794 -12.920197456782072 6.612849883833144 17.338811103697747 0 0 0
1208 403 1 0.5897 -12.074285022171257 6.236249257075674 17.581444354179126 0 0 0
1239 413 1 0.5897 -10.025013324181586 5.5716050966233315 17.17838364286972 0 0 0
1238 413 1 0.5897 -10.353606583064412 5.439622045779982 18.650237489515586 0 0 0
990 330 1 0.5897 -14.138600676352947 7.195429111737926 18.329157427880485 0 -1 0
1043 348 1 0.5897 -11.943403910134933 8.964429267007652 19.752607603415264 0 -1 0
1003 335 2 -1.1794 -13.242651626162097 5.1122219473714985 20.028104126154425 0 -1 0
980 327 1 0.5897 -12.570982043092354 8.265754722610776 16.842650871243887 0 -1 0
988 330 2 -1.1794 -14.75403935585414 7.614883397988212 18.930415199185965 0 -1 0
1209 403 1 0.5897 -13.161787236095353 6.159840880058324 16.530983879505733 0 0 0
1005 335 1 0.5897 -13.710079419185803 4.922599602107072 19.214613717790346 0 -1 0
1033 345 2 -1.1794 -14.55738314874177 8.237512398677026 21.613820509089432 0 -1 0
1035 345 1 0.5897 -14.485519053537416 9.16133960342355 21.374148163095157 0 -1 0
291 97 1 0.5897 -15.197257563419077 10.79579864783016 4.40736877508187 1 0 0
174 58 1 0.5897 -16.44693355598558 9.959041268355527 1.4776978141911565 1 0 0
173 58 1 0.5897 -15.020487725252725 10.425216646651208 1.2777685366058933 1 0 0
172 58 2 -1.1794 -15.552884398454983 9.634977665426156 1.3684172080261237 1 0 0
283 95 2 -1.1794 -16.78206485650565 11.635498578365556 4.005907109202056 1 0 0
161 54 1 0.5897 -14.984481708676025 8.027376994884726 2.1267773245388986 1 0 0
205 69 2 -1.1794 -14.661008215462871 7.833898314888195 5.319961134087488 1 0 0
215 72 1 0.5897 -12.13024406748243 8.889707919303145 3.528437718214864 1 0 0
285 95 1 0.5897 -17.167663425151567 11.40406947959535 3.1609459081204925 1 0 0
148 50 2 -1.1794 -18.087204793580845 10.754716288882904 1.7269945307034114 1 0 0
289 97 2 -1.1794 -14.403648093948494 10.469726320113061 4.831779817086992 1 0 0
150 50 1 0.5897 -18.47909601985148 11.26861944906598 1.0209618907576157 1 0 0
284 95 1 0.5897 -17.459191437145684 11.417561956928061 4.646407909150619 1 0 0
152 51 1 0.5897 -12.719880573872683 7.94930276162539 0.4614074127615391 1 0 0
216 72 1 0.5897 -13.20721481222757 9.953587587454496 3.5367621449611386 1 0 0
153 51 1 0.5897 -12.592009000612673 9.253623417486004 1.219018976433576 1 0 0
151 51 2 -1.1794 -12.565292306715987 8.885472394796501 0.3358890453876198 1 0 0
193 65 2 -1.1794 -13.910060280942698 12.084629837328485 1.5322652543576665 1 0 0
160 54 2 -1.1794 -14.997448744239353 7.236392154579267 2.6655243046194053 1 0 0
206 69 1 0.5897 -14.742122597189727 7.499193894005952 4.4268979450155586 1 0 0
207 69 1 0.5897 -14.626612133587575 8.78489405610459 5.217596874893324 1 0 0
640 214 2 -1.1794 -14.06521085419217 12.217810791781655 6.845032389218286 1 0 0
630 210 1 0.5897 -12.76871321325311 9.574072335216059 7.552496502285715 1 0 0
629 210 1 0.5897 -13.575801058599367 10.81367267155947 7.8745024061668705 1 0 0
628 210 2 -1.1794 -13.336016708673279 9.955012905417586 8.222771900115795 1 0 0
566 189 1 0.5897 -12.878832178341847 10.019485662169007 10.036154956781136 0 0 0
635 212 1 0.5897 -14.657501667445699 8.829228150529122 8.94730381125799 1 0 0
325 109 2 -1.1794 -12.829464824935078 12.990110251219892 10.363809119041582 0 -1 0
642 214 1 0.5897 -14.925249779370791 12.636231523989558 6.884112102995632 1 0 0
634 212 2 -1.1794 -15.407798376723782 8.325961431965801 9.263533670543406 1 0 0
617 206 1 0.5897 -17.057080354675893 12.982712706464227 7.741137211237698 1 0 0
641 214 1 0.5897 -13.443199823033607 12.936490377323238 6.958063536069282 1 0 0
327 109 1 0.5897 -13.58846086118772 13.467379649183506 10.028580010948563 0 -1 0
519 173 1 0.5897 -16.153890565514704 7.672033724877064 6.366512877888768 1 0 0
525 175 1 0.5897 -11.74359544549006 8.362144710507057 5.597778405117298 1 0 0
624 208 1 0.5897 -17.00973100396338 9.09020403404331 9.41826333938626 1 0 0
290 97 1 0.5897 -14.232935362589373 11.096071017839503 5.535130192197758 1 0 0
658 220 2 -1.1794 -16.210577580144168 12.027163755314373 14.993332972703769 0 -1 0
870 290 1 0.5897 -12.277801383251518 9.244619410220462 12.434404161444746 0 0 0
728 243 1 0.5897 -17.34289944270796 13.084461594208602 11.262209934176306 1 -1 0
671 224 1 0.5897 -13.241129582015084 11.414848603051805 14.46933999435515 0 -1 0
670 224 2 -1.1794 -13.867993618703434 10.7986595300437 14.848202104944212 0 -1 0
672 224 1 0.5897 -13.335581477230463 10.219964012306477 15.39393127486954 0 -1 0
956 319 1 0.5897 -16.755342311958835 11.05466078079504 12.01549554241147 1 0 0
660 220 1 0.5897 -15.339581752816873 11.637467961521498 14.917267867658044 0 -1 0
879 293 1 0.5897 -14.482906423963875 9.86878594432152 11.806918665229697 0 0 0
878 293 1 0.5897 -14.6673638287586 10.192134513770963 13.274291136975048 0 0 0
877 293 2 -1.1794 -15.155416405812176 10.05284808379627 12.462733390450502 0 0 0
683 228 1 0.5897 -16.476576958110076 13.622524638118332 14.223572610032443 0 -1 0
659 220 1 0.5897 -16.813062590761724 11.305225993090016 14.81446272121205 0 -1 0
680 227 1 0.5897 -10.861103011351194 9.91444055164122 15.793708897974094 0 -1 0
868 290 2 -1.1794 -11.900814062647266 8.726276646590222 13.145284653372565 0 0 0
565 189 2 -1.1794 -12.89912061898633 10.191069882273048 10.977600209292756 0 0 0
650 217 1 0.5897 -15.273391841770067 9.088362111592566 16.244700811225297 0 -1 0
664 222 2 -1.1794 -12.015148800629554 12.350349398847015 13.569593883048752 0 -1 0
955 319 2 -1.1794 -17.605545850399423 11.412244107354063 11.759445624766622 1 0 0
965 322 1 0.5897 -16.26301491103653 8.547141427261828 12.337782975077813 1 0 0
567 189 1 0.5897 -12.914143987927613 11.145519598310315 11.047307966174902 0 0 0
1140 380 1 0.5897 -11.844396984902872 12.700521484239907 20.73098847449371 0 -1 0
1138 380 2 -1.1794 -12.290438357170478 13.240791027051 20.078828257981815 0 -1 0
1128 376 1 0.5897 -13.974595955397412 14.119852761004044 20.196684165392746 0 -1 0
1127 376 1 0.5897 -15.438121117499927 13.771297913454763 20.366064246417753 0 -1 0
1022 341 1 0.5897 -13.313826571123812 12.702862114177211 18.71757882541723 0 -1 0
1119 373 1 0.5897 -14.896475467045336 11.28625022024049 20.474983239013767 0 -1 0
1117 373 2 -1.1794 -14.207927108967532 10.812169275350158 20.94120966451097 0 -1 0
1044 348 1 0.5897 -12.775193116135508 10.221888991691298 19.888920213454465 0 -1 0
1042 348 2 -1.1794 -12.082603145734504 9.826087955547536 19.35987253558929 0 -1 0
1098 366 1 0.5897 -17.16714976755184 14.360740390567411 18.36412008097319 0 -1 0
1111 371 2 -1.1794 -16.32523038647264 12.284500388787155 20.095922676459132 0 -1 0
1126 376 2 -1.1794 -14.826721543900963 14.507096923955885 20.39715387287966 0 -1 0
991 331 2 -1.1794 -16.002181190380874 13.735071095277132 17.16599515891035 0 -1 0
992 331 1 0.5897 -15.17014431232326 13.479353508954876 17.56424796940263 0 -1 0
981 327 1 0.5897 -12.3702385616725 9.54104969574341 17.633175817674076 0 -1 0
1023 341 1 0.5897 -13.06973120680707 12.629225766007941 17.22534454543804 0 -1 0
1021 341 2 -1.1794 -13.731550623129117 12.451831075811565 17.893747157557836 0 -1 0
1001 334 1 0.5897 -14.535720266233163 10.840545561430229 17.738354290364853 0 -1 0
1000 334 2 -1.1794 -15.13748852312008 10.104729025354782 17.850655116959384 0 -1 0
1002 334 1 0.5897 -16.00896628616236 10.497812862016293 17.802836956675264 0 -1 0
979 327 2 -1.1794 -12.412777304699963 9.203924443288546 16.738352534585225 0 -1 0
1013 338 1 0.5897 -10.759712073630599 10.903967187988243 18.747329559654144 0 -1 0
993 331 1 0.5897 -16.153766932917062 13.079754130192956 16.485019902836253 0 -1 0
1113 371 1 0.5897 -16.729539296976128 12.00045909188501 19.276132711172753 0 -1 0
1118 373 1 0.5897 -13.986711482177348 11.376970999560701 21.681633107565794 0 -1 0
305 102 1 0.5897 -1.4100278969146611 -6.195078678866091 2.2914998530335122 1 1 0
311 104 1 0.5897 -2.8137595750976896 -7.723502072730374 3.4305529921770974 1 1 0
243 81 1 0.5897 -0.8371454083163208 -5.572608668216457 5.194384671125566 0 1 0
318 106 1 0.5897 -2.72427451459662 -4.16955963526619 1.6127563348010046 1 1 0
293 98 1 0.5897 -5.0994734360562575 -3.8070185717599365 2.4734775040398063 1 1 0
304 102 2 -1.1794 -1.2857102200959947 -7.069599446541707 2.6600536709969687 1 1 0
316 106 2 -1.1794 -1.8026858719980332 -4.425941451973331 1.6480866439568735 1 1 0
242 81 1 0.5897 -0.9379287295977985 -6.898606822941469 4.471099892529958 0 1 0
306 102 1 0.5897 -0.5938474539115131 -7.459179110694614 2.125461637456926 1 1 0
310 104 2 -1.1794 -3.5806619785966003 -8.166354155753078 3.793845602144953 1 1 0
3 1 1 0.5897 -1.3854147566536383 -3.3702763429513354 4.3077065589296115 0 0 0
199 67 2 -1.1794 0.5758485236817972 -7.9952253722190365 0.820516144951257 1 1 0
317 106 1 0.5897 -1.3246232490010144 -3.5978616792352245 1.6913443228012048 1 1 0
1262 421 1 0.5897 -1.837828087303384 -5.630892439733577 0.16157680147823938 0 0 1
1 1 2 -1.1794 -0.6456327844939569 -3.757383536287956 4.775804115662491 0 0 0
241 81 2 -1.1794 -1.0706862459018893 -6.491271126458023 5.327031874560343 0 1 0
632 211 1 0.5897 -4.7577720314661684 -5.745279542198324 6.529193741761813 1 1 0
555 185 1 0.5897 -2.6376513302527043 -6.668079687391987 6.2964649284400815 0 1 0
554 185 1 0.5897 -2.8970288929471586 -6.7837483028909284 7.783439326136597 0 1 0
553 185 2 -1.1794 -3.341323886174261 -6.780212426103418 6.9356171960527355 0 1 0
546 182 1 0.5897 -0.04231621178146305 -7.306841886429261 6.609280450529448 0 1 0
356 119 1 0.5897 1.0202034976289696 -6.943612651267279 10.257352071776738 0 0 0
544 182 2 -1.1794 0.45465651500794557 -7.686132542319221 7.334086744829066 0 1 0
348 116 1 0.5897 -1.2913569756988732 -6.342003349270538 9.924569680940778 0 0 0
347 116 1 0.5897 -1.09218355601514 -5.408878686236546 8.749321158773714 0 0 0
346 116 2 -1.1794 -1.7626056069007916 -5.9130352219084585 9.210361812217679 0 0 0
336 112 1 0.5897 -3.301681872479212 -5.026224329156352 9.452918934742902 0 0 0
334 112 2 -1.1794 -4.158320539713259 -4.599592745798549 9.473544565833082 0 0 0
359 120 1 0.5897 -4.7191101405053155 -3.038242038127679 8.909329809706 0 0 0
335 112 1 0.5897 -4.7787075659539475 -5.313648571777078 9.619889553716378 0 0 0
404 135 1 0.5897 -5.2494908949961046 -3.671455411264331 5.612080485068747 1 0 0
357 119 1 0.5897 1.3851779042416457 -7.0715771952427975 8.793728075745312 0 0 0
657 219 1 0.5897 -0.2865282388665058 -6.882486556422899 12.180217002147142 0 0 0
793 265 2 -1.1794 -2.0517634319961857 -5.7391665192894 15.60386994957986 0 0 0
795 265 1 0.5897 -2.8276054513335076 -5.400466091575682 15.157093310836656 0 0 0
803 268 1 0.5897 -3.025774191305663 -2.866149800021576 15.083385370698249 0 0 0
802 268 2 -1.1794 -2.4410670386787867 -2.114650836796926 14.985772362558713 0 0 0
655 219 2 -1.1794 -0.41254296667047363 -7.1458922900618465 11.268671098981711 0 0 0
718 240 2 -1.1794 -0.013772719440298786 -6.551262184476014 13.949686769684908 0 0 0
699 233 1 0.5897 -0.9355459327142341 -4.176241191499666 11.874880539951086 0 0 0