LAMMPS data file via write_data, version 30 Jul 2021, timestep = 1000000

972 atoms
2 atom types
648 bonds
1 bond types
324 angles
1 angle types

-0.09742126478444568 20.097422264784285 xlo xhi
-0.04117120782237116 20.04117220782571 ylo yhi
-0.14072734165131529 20.840725341651826 zlo zhi

Masses

1 1.008
2 15.999

Pair Coeffs # lj/cut/tip4p/long/omp

1 0 0
2 0.21084 3.1668

Bond Coeffs # harmonic/omp

1 450 0.9572

Angle Coeffs # harmonic/omp

1 55 104.52

Atoms # full

23 8 1 0.5897 2.6890188852335823 0.7884663575079999 3.9106946952913333 0 0 0
37 13 2 -1.1794 9.574993207751357 2.286788286480286 0.3767450528996732 0 0 0
4 2 2 -1.1794 4.4085555492270085 1.3322550923700258 3.242399793721553 0 0 0
10 4 2 -1.1794 1.0085305881263287 4.553716856608893 3.638780620744701 0 0 0
1 1 2 -1.1794 2.833900384348361 3.1110076716188337 0.12912401571199472 0 0 0
236 79 1 0.5897 0.9319397401589267 0.275555255918009 1.6705284499429625 0 1 0
16 6 2 -1.1794 3.8838216236168526 4.021501790738468 3.4777309198201047 0 0 0
31 11 2 -1.1794 0.955326877875385 2.423755589238858 1.8554246237893792 0 0 0
33 11 1 0.5897 1.8181540780044805 2.6213753974339795 1.4912319517678405 0 0 0
12 4 1 0.5897 1.838575492446136 4.494343796477852 4.111678884422144 0 0 0
18 6 1 0.5897 4.267371397423414 3.1608814772577847 3.3086399967187625 0 0 0
3 1 1 0.5897 3.769751690000599 2.916289491304447 0.07995233348563918 0 0 0
67 23 2 -1.1794 7.387355359001335 1.8056763416986337 2.152561761436712 0 0 0
68 23 1 0.5897 8.188808101748021 2.0519344966138493 1.6908145429657417 0 0 0
6 2 1 0.5897 5.075166431728814 1.0118370316026255 3.849951812751849 0 0 0
69 23 1 0.5897 6.684659923271839 1.9930092606958363 1.530228744627265 0 0 0
48 16 1 0.5897 6.96390276969811 4.04128864764639 4.545513221402619 0 0 0
53 18 1 0.5897 9.512311146354412 4.224369310477908 3.7490373478836068 0 0 0
47 16 1 0.5897 7.398863852984003 2.960197817560137 3.5790274476892723 0 0 0
46 16 2 -1.1794 7.67121225813937 3.800832061828623 3.947161069601396 0 0 0
11 4 1 0.5897 0.9809054366363017 3.7615420041261105 3.1021158780792897 0 0 0
17 6 1 0.5897 3.931141429788255 4.474963102808085 2.6361107324199224 0 0 0
34 12 2 -1.1794 5.502579659159716 2.420859707880597 0.13907266113243322 0 0 0
32 11 1 0.5897 0.3518207570449569 2.5459693524101428 1.1226232533810796 0 0 0
5 2 1 0.5897 4.24705441969849 0.5954363312481024 2.653046167759553 0 0 0
9 3 1 0.5897 5.039021543728056 4.273554551548666 4.913687999082348 0 0 0
22 8 2 -1.1794 2.0151846782841574 0.6984228769498079 4.584482175932499 0 0 0
273 91 1 0.5897 7.334529679581324 0.017934341142035057 2.0862564661926304 0 1 0
102 34 1 0.5897 0.13779586551435002 0.8887963938134015 4.6361689664903505 1 0 0
58 20 2 -1.1794 8.894640008590681 0.5848373242488795 4.987642958420613 0 0 0
57 19 1 0.5897 7.4970151388270585 4.921206073157871 2.5067903046384137 0 0 0
29 10 1 0.5897 7.099419902563731 0.5405849923224446 5.096858886884452 0 0 0
2 1 1 0.5897 2.7808870361533353 4.061509603951392 0.028362752579489836 0 0 0
59 20 1 0.5897 8.954459582153072 1.3572503945887628 5.5499037510827085 0 0 0
325 109 2 -1.1794 2.827066682942818 2.586153108044037 6.63841514689544 0 0 0
326 109 1 0.5897 2.529602096335281 1.9904195977935535 5.950761194564093 0 0 0
327 109 1 0.5897 3.7280405939799683 2.3164035835497745 6.816326914467313 0 0 0
358 120 2 -1.1794 5.472340208314431 2.2365314833721026 7.165733189915209 0 0 0
355 119 2 -1.1794 1.011953661589384 2.5297705269868596 8.780619971257094 0 0 0
356 119 1 0.5897 1.6114266524594192 2.5289410406228634 8.034479482319895 0 0 0
330 110 1 0.5897 4.264732916697829 0.7516184078431534 9.528415181145839 0 0 0
362 121 1 0.5897 9.155771550278214 3.4312883534195127 6.608226783299367 0 0 0
371 124 1 0.5897 7.787795499949097 3.304433847129632 10.18797089199233 0 0 0
393 131 1 0.5897 7.443157924700985 1.016689896496148 9.132750092624491 0 0 0
27 9 1 0.5897 2.4993910135072257 4.232067573498045 6.457210512668752 0 0 0
8 3 1 0.5897 5.619324588617973 3.7815868119754947 6.222502022281542 0 0 0
360 120 1 0.5897 5.6820335646122615 1.5398149557377356 6.543749270391699 0 0 0
391 131 2 -1.1794 7.386068903625501 1.956318524251046 8.958862277709823 0 0 0
359 120 1 0.5897 6.074868740292137 2.0956185584932685 7.8959868561130175 0 0 0
392 131 1 0.5897 7.926067411357943 2.0894444823344394 8.179879377050504 0 0 0
361 121 2 -1.1794 9.087019368624542 2.5519802886861145 6.980340821500185 0 0 0
342 114 1 0.5897 4.154054139866926 4.383141112216327 9.38655461792836 0 0 0
335 112 1 0.5897 0.9760645415414977 3.620602894184185 10.250169905777147 0 0 0
357 119 1 0.5897 0.14257580856564503 2.4412408380406188 8.390097071122645 0 0 0
561 187 1 0.5897 1.0083760247806273 0.5863227648852543 8.995907441449285 0 1 0
24 8 1 0.5897 2.3594378474548066 0.03348537472146518 5.180836985134086 0 0 0
28 10 2 -1.1794 6.16427197249492 0.37270436156607284 5.212931023966998 0 0 0
363 121 1 0.5897 9.97260967182427 2.348871666553283 7.2814094045437185 0 0 0
7 3 2 -1.1794 5.748687495077525 4.4352572610289736 5.5352874392011 0 0 0
341 114 1 0.5897 3.9516420170817703 3.1660547580278475 10.263963894530447 0 0 0
340 114 2 -1.1794 3.934032657552166 4.123030922782237 10.281037643659063 0 0 0
328 110 2 -1.1794 4.056320583806278 1.3782010528030793 10.22138085400352 0 0 0
684 228 1 0.5897 5.631002393062541 3.568299623779115 13.843229655481789 0 0 0
348 116 1 0.5897 2.366193110267389 0.5551376392812384 10.878007390744886 0 0 0
683 228 1 0.5897 4.544874577642094 2.6312566382929297 14.327211566865488 0 0 0
332 111 1 0.5897 5.202279852840556 4.309004424214082 11.514042940425073 0 0 0
682 228 2 -1.1794 5.474621719509822 2.8318593142214508 14.434431189332596 0 0 0
649 217 2 -1.1794 2.7653385853110692 2.2586857737297876 13.553251640549592 0 0 0
650 217 1 0.5897 2.5114737568679377 1.5324531058469062 12.983723483674598 0 0 0
651 217 1 0.5897 2.2179404006927856 2.1558075822624896 14.331652367790248 0 0 0
329 110 1 0.5897 4.559354003547925 1.0758113947608767 10.977469075873525 0 0 0
372 124 1 0.5897 7.2816389041601255 4.348227214874011 11.16076468726833 0 0 0
350 117 1 0.5897 2.53272340687621 4.136559547896932 13.436091179055445 0 0 0
685 229 2 -1.1794 9.388989137218157 2.756838647216072 13.53005280612256 0 0 0
384 128 1 0.5897 8.996955094006177 0.8768674618911455 11.164571930599896 0 0 0
331 111 2 -1.1794 5.844812494764413 4.484596437569052 12.201423935639385 0 0 0
382 128 2 -1.1794 8.412617769851146 0.856583627042751 11.922382558798715 0 0 0
386 129 1 0.5897 8.833603401191647 4.410359235404663 13.86023747068196 0 0 0
354 118 1 0.5897 5.6278383144542445 1.4147364874351411 13.206172677585583 0 0 0
346 116 2 -1.1794 1.8503898233553815 0.29323440079666346 11.640588842137085 0 0 0
353 118 1 0.5897 6.6565538739956756 0.9522145600042078 12.196458754439941 0 0 0
352 118 2 -1.1794 5.739714872314623 0.8413291240339116 12.447950309133931 0 0 0
686 229 1 0.5897 8.856159161159791 2.542036387187632 14.295643845326909 0 0 0
347 116 1 0.5897 1.0639445362707742 0.8370908188639299 11.596571307700623 0 0 0
383 128 1 0.5897 8.718680749064756 1.571403605635105 12.480640220135946 0 0 0
370 124 2 -1.1794 7.93623313667543 4.204769636892642 10.477322320289902 0 0 0
377 126 1 0.5897 9.956082548649517 4.301015191275373 10.578191612808732 0 0 0
717 239 1 0.5897 7.00293461221095 2.5085704030517877 15.568608751724843 0 0 0
336 112 1 0.5897 2.2639243780028644 4.2324745366924335 10.758950400659538 0 0 0
334 112 2 -1.1794 1.3146354615899059 4.258200711028684 10.878743778111392 0 0 0
680 227 1 0.5897 0.027665015655010228 1.7531949736705963 15.243835765938424 0 0 0
679 227 2 -1.1794 0.9122074007971113 1.6185627809888414 15.583865178774552 0 0 0
652 218 2 -1.1794 4.1657204602612605 1.4322929575043029 17.254187942164172 0 0 0
38 13 1 0.5897 9.49133770383347 1.6728979167057423 20.628560577766784 0 0 -1
653 218 1 0.5897 3.4328712555407055 1.1042729391744637 17.775255535771556 0 0 0
666 222 1 0.5897 4.11001399045745 3.3756578888738438 17.531929227105053 0 0 0
657 219 1 0.5897 6.553046022022383 4.838415566813875 19.173505153300717 0 0 0
664 222 2 -1.1794 4.014863952962256 4.326703384707813 17.585627489353023 0 0 0
665 222 1 0.5897 3.0695778535601326 4.475069900770346 17.561286209201228 0 0 0
671 224 1 0.5897 2.2043295272458923 1.8248314626814732 19.499015288015407 0 0 0
672 224 1 0.5897 1.301600754018749 0.9239090043365579 18.683307400215412 0 0 0
670 224 2 -1.1794 2.178067342864375 0.9720327866928673 19.06494816704688 0 0 0
654 218 1 0.5897 4.285565675732591 0.7752670478938403 16.56844975059022 0 0 0
681 227 1 0.5897 1.0799913228798497 2.3883133149347175 16.127562061277246 0 0 0
35 12 1 0.5897 5.647709236866741 1.8224137783581686 20.3876941949559 0 0 -1
658 220 2 -1.1794 1.265633360484357 4.066877412861814 17.25584054525745 0 0 0
676 226 2 -1.1794 5.894358074381741 0.4221388544696517 19.12449474438698 0 0 0
656 219 1 0.5897 5.051343976737875 4.712204263305601 19.029664194403367 0 0 0
677 226 1 0.5897 5.363102120335115 0.6548861588771501 18.3630661761366 0 0 0
659 220 1 0.5897 0.7154240680642399 4.102079106187468 18.03825384990475 0 0 0
708 236 1 0.5897 7.9761407594054 1.0076664569837968 19.09249937116195 0 0 0
706 236 2 -1.1794 8.909125578063026 0.8773195703633498 19.261959764575266 0 0 0
707 236 1 0.5897 8.97660777561994 -0.03484048964672571 19.544470932340367 0 0 0
694 232 2 -1.1794 7.57484441844222 4.007547321165693 17.739378614783533 0 0 0
695 232 1 0.5897 7.718298830567082 3.248633258907875 17.173894150584623 0 0 0
36 12 1 0.5897 5.607264733253697 3.293856519880373 20.74198355866678 0 0 -1
716 239 1 0.5897 7.721958079817425 1.1993257788473515 15.815780788224524 0 0 0
715 239 2 -1.1794 7.864016257232353 2.1451473098408753 15.775164733125953 0 0 0
696 232 1 0.5897 7.566077412634524 4.754644932854927 17.140979743643648 0 0 0
702 234 1 0.5897 9.811080626662202 4.119484674146336 18.115153966939943 0 0 0
660 220 1 0.5897 0.8824821725047749 4.714041142380169 16.66369379337685 0 0 0
710 237 1 0.5897 9.069631501469615 3.883768999205624 20.736062989380642 0 0 0
709 237 2 -1.1794 8.948831668013439 4.819678728289854 20.575166699406495 0 0 0
655 219 2 -1.1794 5.73720752837744 4.900518107620603 19.6702098503418 0 0 0
56 19 1 0.5897 6.416980273057814 5.574943563852037 1.6713287778051757 0 0 0
15 5 1 0.5897 4.241487089389433 6.582095678351203 2.1170237564858834 0 0 0
136 46 2 -1.1794 5.870478067256993 7.338290031043304 5.031501627535677 0 0 0
142 48 2 -1.1794 5.28242666908457 9.171200539230451 0.20232237301250783 0 0 0
14 5 1 0.5897 3.8745918679850844 5.856112678796129 0.840241931702313 0 0 0
674 225 1 0.5897 1.6577368536275368 5.884899856302772 0.24441382522272137 0 0 1
112 38 2 -1.1794 4.010321057260894 8.205388316334217 2.9680966449989032 0 0 0
20 7 1 0.5897 0.5674909009219444 5.4153679586824355 1.981536914377653 0 0 0
176 59 1 0.5897 7.408683453802453 7.453982713255839 1.8851657452715536 0 0 0
140 47 1 0.5897 1.0114456909706047 9.6108561296781 2.6585973140404904 0 0 0
114 38 1 0.5897 3.225675643934839 7.85165708286898 3.3869050129902893 0 0 0
141 47 1 0.5897 0.7215183444124831 8.156954663211955 2.3513446670747267 0 0 0
110 37 1 0.5897 2.094469554597865 9.028183728080354 0.13857666852587652 0 0 0
175 59 2 -1.1794 7.387920587503071 8.400823401633696 2.024738069281339 0 0 0
139 47 2 -1.1794 1.0575188384121639 8.961702954766514 1.9566263629816136 0 0 0
19 7 2 -1.1794 0.3390460966870545 6.044827472037426 1.2975321099072712 0 0 0
113 38 1 0.5897 4.699279087453849 8.103970342073882 3.6247641465724203 0 0 0
138 46 1 0.5897 6.802444773176218 7.424853666254721 4.831318029860406 0 0 0
13 5 2 -1.1794 4.520508617307547 5.86590973987485 1.5464818276497108 0 0 0
143 48 1 0.5897 5.732528152975877 8.92344593158687 1.009911193044075 0 0 0
166 56 2 -1.1794 8.719140340266152 7.600289422727569 4.791326999698671 0 0 0
55 19 2 -1.1794 7.36180034338967 5.578845259301093 1.8245077027823815 0 0 0
177 59 1 0.5897 8.083172314613018 8.741702431338416 1.4620485893117277 0 0 0
145 49 2 -1.1794 9.538569241896402 9.12743855468886 0.24676370351050664 0 0 0
155 52 1 0.5897 7.605386345952012 9.943961163147113 3.24122838238217 0 0 0
711 237 1 0.5897 8.285869259903915 5.088910339307479 0.22945924351060715 0 0 1
130 44 2 -1.1794 2.043791733958922 7.452867532622173 4.964468236703655 0 0 0
126 42 1 0.5897 3.942215293285006 9.991213773976847 3.394825727218788 0 0 0
132 44 1 0.5897 1.1153725063136626 7.62069262991854 4.803084929491964 0 0 0
111 37 1 0.5897 3.5722300857570795 9.292067480221721 -0.05721465599125963 0 0 0
345 115 1 0.5897 0.46757603805453885 6.760742067318389 8.896650046816193 0 0 0
337 113 2 -1.1794 4.835861797355986 5.563892707699282 8.045006514695405 0 0 0
379 127 2 -1.1794 7.497675465013632 5.906427111039083 8.248950039722388 0 0 0
343 115 2 -1.1794 0.7384798223016487 5.879476206407321 8.639118145317742 0 0 0
468 156 1 0.5897 4.312493948974087 8.939127064072961 7.355843718160212 0 0 0
464 155 1 0.5897 1.0232196237123645 8.729268283714834 8.390996852158873 0 0 0
131 44 1 0.5897 2.0533606522472203 6.680119600977265 5.529358579036541 0 0 0
339 113 1 0.5897 4.590581120990217 5.36845712457406 7.140678708658388 0 0 0
500 167 1 0.5897 7.428229564286494 9.389867015044995 9.596695298577865 0 0 0
433 145 2 -1.1794 2.3886206316426875 9.035130358974822 7.163865767415318 0 0 0
62 21 1 0.5897 8.695040772722216 5.700702207748258 7.175197608535084 0 0 0
463 155 2 -1.1794 0.3115865010753346 8.757906172830415 9.030443510605942 0 0 0
435 145 1 0.5897 2.3475832784020216 8.525934262051127 6.354380899248977 0 0 0
26 9 1 0.5897 1.8822941815182714 5.251133158944495 7.3913492444389215 0 0 0
436 146 2 -1.1794 3.8708186422600908 7.4879532919374405 9.900720301290276 0 0 0
437 146 1 0.5897 4.330779969061802 6.935100519044133 9.269022629159519 0 0 0
61 21 2 -1.1794 9.41916718860692 5.472069650618728 6.592520931768776 0 0 0
470 157 1 0.5897 8.692890092834542 9.271907574636751 7.9792692602308755 0 0 0
168 56 1 0.5897 8.753371586739064 8.31993723802352 5.421591415906861 0 0 0
499 167 2 -1.1794 7.36821933216156 8.653803603745185 8.987675640904719 0 0 0
466 156 2 -1.1794 5.257881569882729 9.066183415791713 7.27709933112218 0 0 0
434 145 1 0.5897 2.379616464356229 9.947523404748607 6.874302555386955 0 0 0
501 167 1 0.5897 6.672226432757216 8.901981818658498 8.379257915015087 0 0 0
380 127 1 0.5897 7.640998567800219 6.7970852386422775 8.569226415840498 0 0 0
338 113 1 0.5897 5.788060024314824 5.658085722351264 8.020388716359173 0 0 0
467 156 1 0.5897 5.50701768626107 8.546453599177156 6.512865800197863 0 0 0
469 157 2 -1.1794 9.178367892334949 9.287349221553313 7.154521690141298 0 0 0
25 9 2 -1.1794 2.2665264995483825 5.158504900615405 6.519646879730051 0 0 0
344 115 1 0.5897 0.8828553114914393 5.421172051923544 9.466967936528974 0 0 0
381 127 1 0.5897 7.5539774780411575 5.357943588625906 9.031386343595265 0 0 0
438 146 1 0.5897 3.8691493114171887 8.358137635788811 9.501772214215835 0 0 0
137 46 1 0.5897 5.773711921795367 6.436803589129493 5.3386635548192665 0 0 0
167 56 1 0.5897 9.034395129840048 6.839082403492366 5.278670798341523 0 0 0
471 157 1 0.5897 9.980144633661794 8.798068780599156 7.338831568012856 0 0 0
492 164 1 0.5897 7.5254838626035 7.7021055703008985 11.810819719730379 0 0 0
333 111 1 0.5897 5.751636953813305 5.4197033093739755 12.383875565272486 0 0 0
759 253 1 0.5897 2.403485078919031 8.558284314605274 13.107300894937689 0 0 0
794 265 1 0.5897 9.201738774921708 8.439527760091078 13.576286712725352 0 0 0
668 223 1 0.5897 1.2995532650508481 5.541869657249656 14.827566240256882 0 0 0
790 264 2 -1.1794 5.426414401705299 9.011288036981298 14.244046042173377 0 0 0
454 152 2 -1.1794 2.131140904723427 7.191902405455192 11.943213979048068 0 0 0
455 152 1 0.5897 2.6399790340642793 7.17426592389834 11.132709711803734 0 0 0
456 152 1 0.5897 2.339508085164772 6.363577423106598 12.375440955777215 0 0 0
792 264 1 0.5897 4.598303344585839 8.980457609222556 14.723045494453208 0 0 0
385 129 2 -1.1794 8.699176159342286 5.296350281862197 14.196853906116946 0 0 0
351 117 1 0.5897 3.453230709856525 5.1910569736181005 14.012809633777586 0 0 0
661 221 2 -1.1794 4.712344375533474 5.797316783029004 15.159523602679718 0 0 0
461 154 1 0.5897 5.274767643429087 7.746864815633762 12.812868463685508 0 0 0
533 178 1 0.5897 0.22149554579761532 7.391031754602563 12.154932545153564 1 0 0
462 154 1 0.5897 5.0932932842053535 7.349855902868062 11.363385589838673 0 0 0
490 164 2 -1.1794 8.356498708170284 7.4338257994376455 12.20266368057086 0 0 0
791 264 1 0.5897 6.084316305829551 9.197392115724963 14.91389397628848 0 0 0
349 117 2 -1.1794 2.5758371363546693 5.068523688334847 13.650544346742805 0 0 0
387 129 1 0.5897 8.855683179629665 5.865722632499163 13.443491229251224 0 0 0
460 154 2 -1.1794 5.6384971494893135 7.181197689037913 12.131771912137806 0 0 0
757 253 2 -1.1794 2.625240612232873 9.115479388776473 13.853363464638099 0 0 0
793 265 2 -1.1794 9.663171458650282 8.953550229528279 14.238932855589093 0 0 0
491 164 1 0.5897 9.00427536142233 7.576130184550723 11.512528449680566 0 0 0
824 275 1 0.5897 8.307988093635283 9.086075853262134 15.498640518721503 0 0 0
789 263 1 0.5897 1.4629437404805121 8.650267108408647 15.280959004050102 0 0 0
705 235 1 0.5897 8.030357653185728 5.936379598733719 15.536450918306391 0 0 0
667 223 2 -1.1794 0.5929305679090666 5.829629399085327 15.405523912685016 0 0 0
795 265 1 0.5897 9.503167605506231 9.86417457855514 13.990815251509053 0 0 0
669 223 1 0.5897 0.7807175780035105 6.753291680766297 15.572777762754697 0 0 0
663 221 1 0.5897 4.546748794205335 6.686359928856567 15.473424399572458 0 0 0
786 262 1 0.5897 6.925737376205084 7.595826205379265 19.29496261739432 0 0 0
788 263 1 0.5897 1.002298521591999 9.40323459239111 16.51087238783358 0 0 0
703 235 2 -1.1794 7.338048284073628 6.257862817556259 16.113977831107405 0 0 0
760 254 2 -1.1794 4.573506550429035 7.980182653704398 17.037476595168386 0 0 0
780 260 1 0.5897 3.002215268138516 7.403222408283076 17.758153373727303 0 0 0
778 260 2 -1.1794 2.3252648197080568 7.283175613776685 18.42406590692933 0 0 0
779 260 1 0.5897 2.4422286211950475 8.022205795410855 19.021116459581897 0 0 0
787 263 2 -1.1794 0.8088619868141602 8.63090929653877 15.979485266582293 0 0 0
761 254 1 0.5897 4.535773281322729 8.933791599229972 16.962476934281156 0 0 0
673 225 2 -1.1794 2.450127728803715 5.756792081973996 20.704462016666447 0 0 0
675 225 1 0.5897 2.2104455516750683 6.053908630390583 19.826709247735785 0 0 0
823 275 2 -1.1794 7.529078541891791 8.999579215841791 16.048169580243403 0 0 0
762 254 1 0.5897 5.133966375688268 7.821168842524716 17.79692038787426 0 0 0
816 272 1 0.5897 8.997229744389216 7.976026276890979 19.760205999803446 0 0 0
815 272 1 0.5897 8.833471503880082 6.518695196201424 19.383767754129124 0 0 0
109 37 2 -1.1794 2.7103007980806955 9.516748189329832 20.573886560228438 0 0 -1
814 272 2 -1.1794 8.685147598383733 7.406243741360857 19.057204777062474 0 0 0
785 262 1 0.5897 5.841253513759963 6.551685992642704 19.455205655298776 0 0 0
784 262 2 -1.1794 5.987080550310932 7.454434670581 19.172079767632617 0 0 0
825 275 1 0.5897 7.472610281098276 8.063162697742207 16.23875904167962 0 0 0
858 286 1 0.5897 0.29960814317009377 7.562060374196315 18.23563399593153 1 0 0
704 235 1 0.5897 6.532083828760385 6.139495486745975 15.611420909342065 0 0 0
662 221 1 0.5897 4.5964089921251805 5.244376517074375 15.932212102803534 0 0 0
144 48 1 0.5897 5.580170495896478 8.531284107970368 20.537152670828604 0 0 -1
118 40 2 -1.1794 1.1620218550674837 10.841706499267541 3.815925447829283 0 0 0
124 42 2 -1.1794 3.913530456171782 10.933098457386324 3.5634954425633096 0 0 0
120 40 1 0.5897 0.9043977680438036 11.545874721451646 3.2208766207912367 0 0 0
121 41 2 -1.1794 4.543799490271293 12.418463528832737 1.1740471878403513 0 0 0
285 95 1 0.5897 7.401596023369686 14.646758268981964 1.9095725741981888 0 0 0
122 41 1 0.5897 4.49970089431963 11.870482999201831 1.9576269814250953 0 0 0
129 43 1 0.5897 0.39516368128977936 13.574191328369942 1.9570914808067261 0 0 0
240 80 1 0.5897 2.7463454057576655 14.081089913028244 4.636326673110158 0 0 0
246 82 1 0.5897 5.491760628669723 14.290742126181845 4.72870922317166 0 0 0
119 40 1 0.5897 2.093994762369325 10.990967054096963 3.9750228919429027 0 0 0
123 41 1 0.5897 3.7101094262429006 12.26774381092177 0.7286097417723011 0 0 0
127 43 2 -1.1794 0.4033541838679642 12.677940135911507 1.62094581673849 0 0 0
276 92 1 0.5897 9.335482640096785 13.936061026714187 4.168263159646216 0 0 0
222 74 1 0.5897 4.576553994296576 14.135192545753227 2.5238766397633676 0 0 0
220 74 2 -1.1794 4.126624121684768 14.484568420871364 3.2930927024585803 0 0 0
275 92 1 0.5897 7.90351498646311 13.95186467893273 4.659106889466622 0 0 0
156 52 1 0.5897 8.95448753850187 10.372223381133338 3.7781515795729463 0 0 0
154 52 2 -1.1794 8.017921128586384 10.555887702988098 3.850841291413797 0 0 0
125 42 1 0.5897 4.59214415757507 11.079680493995392 4.222381545189366 0 0 0
163 55 2 -1.1794 7.433260532033289 12.461672286549318 1.7974259552558136 0 0 0
164 55 1 0.5897 6.5814156346519175 12.106888806647495 1.5430936201476113 0 0 0
165 55 1 0.5897 7.610909117229872 12.069587185797289 2.6523568709600753 0 0 0
274 92 2 -1.1794 8.749353293079214 13.52850508351541 4.80587480575296 0 0 0
819 273 1 0.5897 8.544587476613833 12.191155589264625 0.4292483198464099 0 0 1
783 261 1 0.5897 1.7792013925395418 12.159867962553143 0.3394781751469907 0 0 1
116 39 1 0.5897 6.550846363876884 10.8944020679326 5.064311327224623 0 0 0
146 49 1 0.5897 9.30477912427887 10.050215789171594 0.14588530759628487 0 0 0
489 163 1 0.5897 7.809663700285905 13.579565954692114 8.859480460385594 0 0 0
133 45 2 -1.1794 2.7604793438546618 11.856738887160635 6.598382513309093 0 0 0
134 45 1 0.5897 2.003102320482871 11.909959143638224 7.1812286328276045 0 0 0
135 45 1 0.5897 3.491291083213011 12.181572954981077 7.124260983283827 0 0 0
170 57 1 0.5897 9.456175074691995 12.34611126452684 5.946484916353915 0 0 0
239 80 1 0.5897 2.4604170089132413 13.23646407886028 5.859749331192294 0 0 0
446 149 1 0.5897 4.648641188208521 13.234558969586178 9.290227457984377 0 0 0
453 151 1 0.5897 0.6985413462237612 12.119030303386564 9.052107867909466 0 0 0
445 149 2 -1.1794 4.828348822880494 12.583340232502122 8.612063543544577 0 0 0
573 191 1 0.5897 0.84047710155358 14.509289517876766 8.672400913250822 0 0 0
169 57 2 -1.1794 9.618182019492872 12.04848003066154 6.841669447860623 0 0 0
450 150 1 0.5897 4.533809848307535 11.124304623355373 9.760244811049905 0 0 0
579 193 1 0.5897 8.912891845179661 14.7248866768795 6.271324089513659 0 0 0
115 39 2 -1.1794 5.85856012593378 11.264915237277295 5.611723895350136 0 0 0
447 149 1 0.5897 5.779087341808421 12.47409495514955 8.63016621049274 0 0 0
171 57 1 0.5897 9.344985678356405 11.131003038188048 6.84274661429177 0 0 0
488 163 1 0.5897 8.355762012557381 12.408684655117641 8.070255976131222 0 0 0
487 163 2 -1.1794 7.726742821212842 12.631466501904772 8.756427429202006 0 0 0
451 151 2 -1.1794 0.7031072769010339 12.776267691469439 8.356321198903851 0 0 0
117 39 1 0.5897 5.657206181007759 10.574729302532626 6.243704387047692 0 0 0
480 160 1 0.5897 7.680227389636995 11.52607406126461 10.173529090421418 0 0 0
244 82 2 -1.1794 6.098577374888814 14.04232420735634 5.4259982676034 0 0 0
238 80 2 -1.1794 2.314844453525932 14.107492980076314 5.490294450675135 0 0 0
245 82 1 0.5897 5.844413455024595 13.149225046065466 5.658498134147075 0 0 0
317 106 1 0.5897 0.49013301241782703 14.015178535691554 5.279063255241968 1 0 0
443 148 1 0.5897 0.8938225709188173 10.172655811555328 9.849322472860583 0 0 0
457 153 2 -1.1794 2.381725541564214 11.971446737143163 13.48778878968599 0 0 0
458 153 1 0.5897 1.7224002098985125 12.194980218192358 14.144674545978134 0 0 0
459 153 1 0.5897 3.2187319183635412 12.11809993781524 13.928337516586938 0 0 0
441 147 1 0.5897 5.528090978244113 10.479955781337125 13.054477705127686 0 0 0
562 188 2 -1.1794 1.9684053047562404 14.300395937603001 11.717682295739257 0 0 0
563 188 1 0.5897 2.061516030771905 13.486721246768207 12.213282118430849 0 0 0
512 171 1 0.5897 -0.0022768669938607183 11.217301765574376 11.75887948075211 1 0 0
449 150 1 0.5897 4.414509478539332 10.775667815940277 11.228570795118673 0 0 0
598 200 2 -1.1794 9.086442267610776 13.8496197683655 11.975860989773208 0 0 0
444 148 1 0.5897 2.028226033819944 10.787906498731246 10.640796600538806 0 0 0
544 182 2 -1.1794 4.411649573514681 14.526830667843965 10.438042355886338 0 0 0
568 190 2 -1.1794 6.223640044373876 14.033958437792469 12.469780906014305 0 0 0
564 188 1 0.5897 2.262521454049479 14.983560897574307 12.320244295881167 0 0 0
546 182 1 0.5897 5.016190227729248 14.447532782167997 11.1758743059612 0 0 0
777 259 1 0.5897 0.5988615551678048 13.74025661993905 15.311141925273978 0 0 0
439 147 2 -1.1794 5.630597035977008 11.244155768670469 12.487194443826608 0 0 0
440 147 1 0.5897 6.410249226148457 11.05310526849008 11.965869366209773 0 0 0
442 148 2 -1.1794 1.1255249339722544 10.94558519777281 10.364327219268011 0 0 0
570 190 1 0.5897 7.094418300146692 14.102546593958378 12.078387792087321 0 0 0
569 190 1 0.5897 6.093274042802322 13.094858895096904 12.60211492276378 0 0 0
599 200 1 0.5897 9.345314975890355 13.07679207785939 12.477907737904388 0 0 0
493 165 2 -1.1794 9.255507357231266 11.679031198727216 13.612283048906667 0 0 0
494 165 1 0.5897 8.519457525320592 11.911935113382176 14.17811222889594 0 0 0
478 160 2 -1.1794 7.747395482269783 10.873326556605962 10.870441388053294 0 0 0
479 160 1 0.5897 8.638272551726477 10.971714239858027 11.206296301620446 0 0 0
545 182 1 0.5897 3.5433871873850458 14.421206660454562 10.82679106545875 0 0 0
769 257 2 -1.1794 4.594704191540409 12.557339904809545 15.152840879013624 0 0 0
811 271 2 -1.1794 7.307322482462682 12.436069688516337 15.523989351926847 0 0 0
770 257 1 0.5897 5.537698529881374 12.394098730329972 15.136601305847185 0 0 0
600 200 1 0.5897 9.191288586406632 14.5790389974241 12.586807888693496 0 0 0
775 259 2 -1.1794 0.6101397719947509 12.789944636948855 15.196247047090637 0 0 0
758 253 1 0.5897 2.482717994810968 10.007794638004917 13.537385978907748 0 0 0
642 214 1 0.5897 0.15224767862484118 14.70561006560705 12.033061199497467 1 0 0
495 165 1 0.5897 9.995387241992104 12.17301630473641 13.965502182157167 0 0 0
448 150 2 -1.1794 4.055408682195304 10.56022755277449 10.367868377220478 0 0 0
812 271 1 0.5897 7.476386580139219 13.378148116167695 15.505968874550296 0 0 0
581 194 1 0.5897 9.889636809190783 14.539199980037457 10.424703125863314 0 0 0
804 268 1 0.5897 7.862467604499347 10.294871447529975 17.3464694191347 0 0 0
869 290 1 0.5897 3.6975411407199648 14.377272223395783 17.866147287547797 0 0 0
768 256 1 0.5897 1.082623096154801 11.581709154371909 16.544665522833824 0 0 0
886 296 2 -1.1794 2.0971326532283268 14.3699016805382 18.879904757389717 0 0 0
888 296 1 0.5897 2.13256770844917 13.576544277945974 19.414383354916346 0 0 0
773 258 1 0.5897 3.041488011114704 10.66166524537237 16.855140084531847 0 0 0
923 308 1 0.5897 9.36546252948827 14.680546078127946 19.65709172153253 0 0 0
781 261 2 -1.1794 2.387957653658098 12.183145628722148 20.582667541879886 0 0 0
767 256 1 0.5897 0.8599501238034898 11.205282464229628 17.99392960450532 0 0 0
870 290 1 0.5897 5.194061263511898 14.173372278397743 17.76348401597876 0 0 0
774 258 1 0.5897 4.225992569399917 11.44287968787085 16.32741642436106 0 0 0
818 273 1 0.5897 8.95662933944124 12.411972590447828 19.970864258096434 0 0 0
765 255 1 0.5897 5.125284741428201 10.79208086709064 19.831572700756844 0 0 0
965 322 1 0.5897 0.16302488640861668 14.446469698864771 18.701763713349074 1 0 0
772 258 2 -1.1794 3.9960657962459267 10.636691715478605 16.789510171518664 0 0 0
922 308 2 -1.1794 9.24906784265412 13.938370668059903 19.063837968120467 0 0 0
813 271 1 0.5897 7.58160789939451 12.159673742260036 16.398341177877995 0 0 0
763 255 2 -1.1794 5.3711300712875945 11.242884563593783 19.023767005042146 0 0 0
764 255 1 0.5897 4.642092414936238 11.078403885281947 18.425808979162703 0 0 0
766 256 2 -1.1794 1.3715971973781018 10.968484136970298 17.220439645271227 0 0 0
893 298 1 0.5897 7.435469165395878 13.717270302271572 18.56118946217463 0 0 0
894 298 1 0.5897 6.273813415565642 12.784876058518488 18.831568351430676 0 0 0
802 268 2 -1.1794 7.876505679469892 11.105584624049085 17.855285188973596 0 0 0
803 268 1 0.5897 7.065603574805893 11.084068536392829 18.363352627875067 0 0 0
892 298 2 -1.1794 6.5031904344750355 13.712716288653045 18.77792736549943 0 0 0
252 84 1 0.5897 5.328521746105165 14.567596911807199 20.324264595541806 0 0 -1
782 261 1 0.5897 2.605357436400993 11.264846718738198 20.421864387604316 0 0 0
817 273 2 -1.1794 9.026716624845355 11.784773901543947 20.690557671519315 0 0 0
868 290 2 -1.1794 4.444013589453438 14.528383488077017 17.28641981607629 0 0 0
810 270 1 0.5897 9.7080864398955 11.01371516553946 17.898538618514728 0 0 0
924 308 1 0.5897 9.853489494821556 14.111062443278877 18.342075930231573 0 0 0
771 257 1 0.5897 4.488191941126849 13.288813393252322 15.761031107557908 0 0 0
230 77 1 0.5897 3.997111290325165 19.291876722984824 0.9108553694027282 0 0 0
233 78 1 0.5897 4.001169239453264 17.982392218364254 3.171271304312179 0 0 0
263 88 1 0.5897 7.073299596401337 17.1229070880851 4.668683296524737 0 0 0
217 73 2 -1.1794 2.579453214534805 16.185194669962186 -0.038217364150856664 0 0 0
890 297 1 0.5897 1.7843596208083539 18.89361114556842 0.18689613933248772 0 0 1
232 78 2 -1.1794 3.7846050711429475 17.257136581251117 3.7572864016796967 0 0 0
249 83 1 0.5897 1.1200489417692634 15.674625423743983 1.3526412146369309 0 0 0
226 76 2 -1.1794 0.9910391074422649 17.57237606030479 3.7930939559235854 0 0 0
227 76 1 0.5897 1.0521618028070547 18.316287361932396 3.193793250699297 0 0 0
248 83 1 0.5897 0.48973854892229174 16.22395893800887 2.614642554858189 0 0 0
247 83 2 -1.1794 0.484329672609044 15.461620032190403 2.0357562241286997 0 0 0
234 78 1 0.5897 2.828196022499221 17.25667337243165 3.7952450277450196 0 0 0
235 79 2 -1.1794 0.5705066324808358 19.47650633225348 1.7648765238902866 0 0 0