LAMMPS data file via write_data, version 30 Jul 2021, timestep = 3250000

972 atoms
2 atom types
648 bonds
1 bond types
324 angles
1 angle types

-0.06044502972309651 20.06044602971888 xlo xhi
-0.16732075758100606 20.167321757581256 ylo yhi
0.0033543804953506395 20.69664361950204 zlo zhi

Masses

1 1.008
2 15.999

Pair Coeffs # lj/cut/tip4p/long/omp

1 0 0
2 0.21084 3.1668

Bond Coeffs # harmonic/omp

1 450 0.9572

Angle Coeffs # harmonic/omp

1 55 104.52

Atoms # full

12 4 1 0.5897 2.0843006577970224 3.9401686374095846 4.0425964764584785 0 0 0
23 8 1 0.5897 2.632147180478331 0.5018282889572246 3.883103336303749 0 0 0
33 11 1 0.5897 1.5830836877077445 1.816063077582057 1.2948504942872467 0 0 0
5 2 1 0.5897 4.3801395736894015 0.5817494262106715 2.4425861727440004 0 0 0
4 2 2 -1.1794 4.337246159783734 1.2086533061813234 3.1646753638674463 0 0 0
16 6 2 -1.1794 3.917309178059634 3.9144204434797647 3.6995521711481665 0 0 0
10 4 2 -1.1794 1.1804824352674346 3.866523327229956 3.7360987692804226 0 0 0
11 4 1 0.5897 1.1663098485086898 3.0589286574665118 3.2224193161896073 0 0 0
3 1 1 0.5897 3.5017897546178003 2.0558705649746947 0.56339117884073 0 0 0
31 11 2 -1.1794 0.9535405283300189 1.7174574261182385 2.009132979473978 0 0 0
18 6 1 0.5897 3.8468978594309235 2.9860767287293255 3.4770205693991274 0 0 0
1 1 2 -1.1794 2.655314616157293 2.25578051793625 0.1636770425707111 0 0 0
17 6 1 0.5897 4.246013747394657 4.328273687198189 2.901472147692961 0 0 0
32 11 1 0.5897 0.1353713225487354 2.069174840100614 1.6582000931802316 0 0 0
2 1 1 0.5897 2.6279699116593354 3.211834836795963 0.12498578467409284 0 0 0
102 34 1 0.5897 -0.04033273527081884 0.27379257100349286 4.925562554234075 1 0 0
22 8 2 -1.1794 1.9625117664708935 0.15260793826426383 4.471202158334711 0 0 0
20 7 1 0.5897 0.7821056799967164 4.908826859550743 2.3255532054285926 0 0 0
356 119 1 0.5897 1.2019451856010963 2.1081301980928693 7.711725079157301 0 0 0
27 9 1 0.5897 2.5752214466502177 4.267615381461997 6.15834825336784 0 0 0
342 114 1 0.5897 4.296243521308844 4.622916252247869 9.585956767927785 0 0 0
325 109 2 -1.1794 2.293232560775496 2.444540244914984 6.349563285926384 0 0 0
326 109 1 0.5897 2.1119352168191132 1.721841424019611 5.748634950892694 0 0 0
327 109 1 0.5897 3.2240009459615173 2.3577251035891345 6.555433705146766 0 0 0
355 119 2 -1.1794 0.7137673973298452 1.9037941443148019 8.509303758133631 0 0 0
330 110 1 0.5897 4.2429269989035046 0.5297565210461186 9.427266593555201 0 0 0
336 112 1 0.5897 2.111338692949164 4.214485386471754 10.2297580270773 0 0 0
335 112 1 0.5897 0.9786385396172184 3.455571352309651 9.571741624041579 0 0 0
341 114 1 0.5897 4.286864118830285 3.210303965903024 10.130422259453395 0 0 0
334 112 2 -1.1794 1.1579033295736954 4.200043585358967 10.146110278703823 0 0 0
328 110 2 -1.1794 4.181420793114943 1.4054288938480384 9.808972479175072 0 0 0
561 187 1 0.5897 0.7968458039023187 0.055435712246811875 8.539520232334654 0 1 0
340 114 2 -1.1794 4.021316462265115 4.105134495515967 10.34262739683169 0 0 0
348 116 1 0.5897 2.0430500092905888 0.4578150333201857 10.618668390359078 0 0 0
346 116 2 -1.1794 1.9137421110231818 0.2803058184824373 11.55033728489698 0 0 0
650 217 1 0.5897 2.522215993758316 1.7278581729218538 12.581782953923058 0 0 0
679 227 2 -1.1794 0.845249760690181 1.6803304625322784 15.220704991671184 0 0 0
651 217 1 0.5897 2.3326742524856034 1.8585755182773105 14.07801723162822 0 0 0
649 217 2 -1.1794 2.965809341710373 2.0192270138516335 13.378367533046418 0 0 0
347 116 1 0.5897 0.9957015986845266 0.49851524912590195 11.71107027540703 0 0 0
683 228 1 0.5897 4.51874167257135 2.537880390624073 14.112952486673155 0 0 0
349 117 2 -1.1794 2.2434479159630754 4.681152373427848 13.792774903186045 0 0 0
350 117 1 0.5897 2.5112704667727064 3.8276693509691007 13.452042985504866 0 0 0
329 110 1 0.5897 4.524629171598629 1.3048613951986248 10.696833845903301 0 0 0
332 111 1 0.5897 4.881098372415247 4.572415974130815 11.739979600770486 0 0 0
680 227 1 0.5897 -0.028705308403092412 1.863156943483515 14.87575408978805 0 0 0
659 220 1 0.5897 0.452063486865212 3.603680884848205 18.014439607876653 0 0 0
653 218 1 0.5897 3.503031461181471 0.8469901981271557 17.629533069413945 0 0 0
660 220 1 0.5897 0.8887146974046081 4.272294336264724 16.728274715488133 0 0 0
666 222 1 0.5897 3.9071447378963766 3.0413584592588587 16.88853616825716 0 0 0
672 224 1 0.5897 1.1171911338122413 0.4189978056838085 18.829029726340565 0 0 0
652 218 2 -1.1794 4.159428500012432 1.1271415587941291 16.991683331996533 0 0 0
664 222 2 -1.1794 3.7954925710929346 3.9184696765044817 17.25523480588815 0 0 0
665 222 1 0.5897 2.8996839344105636 3.9253692486649863 17.59246368012385 0 0 0
681 227 1 0.5897 0.9136394946133228 2.2272278302852 16.0032755432293 0 0 0
670 224 2 -1.1794 2.0734549210552102 0.4571024293710305 18.810321469064434 0 0 0
671 224 1 0.5897 2.301882076175672 1.088585411925905 19.492428069896967 0 0 0
658 220 2 -1.1794 1.0066691741501073 3.475164676708677 17.244943634251918 0 0 0
884 295 1 0.5897 0.9409733750625944 -0.09127851599965915 15.658940992935758 0 1 0
654 218 1 0.5897 4.301854532196947 0.3577943263723954 16.44022888596092 0 0 0
656 219 1 0.5897 4.932461522663649 4.243195519812036 18.853213885975485 0 0 0
140 47 1 0.5897 1.3781572605488006 8.702861022928653 2.382664199616073 0 0 0
141 47 1 0.5897 0.947985248449198 7.38617206905987 1.771675351143122 0 0 0
19 7 2 -1.1794 0.6421056722820329 5.535740893395325 1.615872080474212 0 0 0
132 44 1 0.5897 0.9410955886373591 7.235816542378812 4.563841120709366 0 0 0
139 47 2 -1.1794 1.1858405637438154 8.28482089498851 1.5433143940342777 0 0 0
126 42 1 0.5897 4.2212364797063096 9.420702444371575 3.252985809641904 0 0 0
110 37 1 0.5897 2.4076457272475924 8.496934146624424 0.24276698675586894 0 0 0
14 5 1 0.5897 4.2103281083287225 5.215043865291675 0.9011305667909945 0 0 0
112 38 2 -1.1794 4.23000034556094 7.724459266171144 2.8781782320740636 0 0 0
15 5 1 0.5897 4.489309982547489 6.216425679972561 2.0017542355433946 0 0 0
114 38 1 0.5897 3.4038361155766483 7.549736732355434 3.3288871472208945 0 0 0
13 5 2 -1.1794 4.85003914580145 5.437925916682752 1.5773918661830209 0 0 0
130 44 2 -1.1794 1.8851300251469467 7.384056697093819 4.6191314144472795 0 0 0
113 38 1 0.5897 4.903658864862627 7.4125560111508895 3.482448795243861 0 0 0
674 225 1 0.5897 1.8837838199007872 5.376326806680947 0.4033372806642906 0 0 1
345 115 1 0.5897 0.7634293835376604 6.789034825146576 8.426265292770726 0 0 0
443 148 1 0.5897 0.8820521098041636 9.75246411881321 10.171701701435145 0 0 0
337 113 2 -1.1794 4.830958794405374 5.790836365445135 8.048225471913833 0 0 0
437 146 1 0.5897 3.676371708711512 7.103555447785282 9.029595770503438 0 0 0
339 113 1 0.5897 4.3170380004092745 5.6726514751963295 7.249374333873412 0 0 0
344 115 1 0.5897 0.7797802117412159 5.382483800489351 8.986073042310617 0 0 0
468 156 1 0.5897 4.554193033922455 9.03534065681932 7.037908459331022 0 0 0
435 145 1 0.5897 2.369355755336327 8.756267241191697 5.917850474854976 0 0 0
464 155 1 0.5897 1.318051169135227 8.88587808310243 7.933416712420186 0 0 0
25 9 2 -1.1794 2.5952387044934127 5.1919910866941255 6.406170364410024 0 0 0
463 155 2 -1.1794 0.6106984402197226 8.888561021518056 8.578311906393328 0 0 0
433 145 2 -1.1794 2.630119634254806 9.195938276621105 6.727095361560359 0 0 0
343 115 2 -1.1794 0.6018811054668931 5.876675692376447 8.185843955625433 0 0 0
26 9 1 0.5897 1.8257873370282096 5.307716947675524 6.963665210016915 0 0 0
438 146 1 0.5897 3.523304336209188 8.250835134810492 10.005467430913615 0 0 0
436 146 2 -1.1794 3.2635759141148526 7.341090348513075 9.859904902001045 0 0 0
131 44 1 0.5897 2.2059586534336018 6.680392900912457 5.183181003822153 0 0 0
792 264 1 0.5897 4.563273197812169 8.98387032720339 14.312916189534223 0 0 0
351 117 1 0.5897 3.0653176168614857 5.123150408893467 14.005882979516748 0 0 0
454 152 2 -1.1794 2.032816932013026 7.0543409468839195 12.277755209286468 0 0 0
455 152 1 0.5897 2.6125201314913475 6.960513364443377 11.521868526121722 0 0 0
456 152 1 0.5897 1.9237847140002986 6.16280301281375 12.608680089984471 0 0 0
759 253 1 0.5897 2.5617506236414647 8.256097089848625 13.570347601229196 0 0 0
757 253 2 -1.1794 2.812369089514709 8.86991844620771 14.260744235237059 0 0 0
533 178 1 0.5897 0.38787382042997826 7.448124665881263 12.040219620026447 1 0 0
668 223 1 0.5897 0.9408652545623062 5.441849122632973 14.847246256418028 0 0 0
789 263 1 0.5897 1.3292919460428556 8.536357232211776 15.304778579712282 0 0 0
758 253 1 0.5897 2.7489475842483015 9.732160750227203 13.849906375247556 0 0 0
661 221 2 -1.1794 4.221858972509905 6.076745710525637 15.274263211793015 0 0 0
448 150 2 -1.1794 3.9387987635895843 9.874708189220092 10.38854170443176 0 0 0
787 263 2 -1.1794 0.7592854186621927 8.410306350585016 16.06335793829483 0 0 0
780 260 1 0.5897 2.114934339431297 7.333594881148549 17.513222219456644 0 0 0
778 260 2 -1.1794 1.9541119035475347 6.818734237132555 18.3039669467976 0 0 0
662 221 1 0.5897 3.9856321369959558 5.401038327617399 15.909777225959976 0 0 0
779 260 1 0.5897 2.14573671303118 7.419167128261736 19.02438562633418 0 0 0
788 263 1 0.5897 0.888083711930982 9.196734238539488 16.5936217921983 0 0 0
760 254 2 -1.1794 3.986717429499369 8.373163459948715 16.719096310502458 0 0 0
761 254 1 0.5897 3.922074215922294 9.319779630673443 16.84567277861857 0 0 0
675 225 1 0.5897 2.54564149869804 5.494437284586027 19.740196033116234 0 0 0
858 286 1 0.5897 -0.004067372251910423 6.704678612530045 18.71599986839786 1 0 0
669 223 1 0.5897 0.4914349389609628 6.555034979317579 15.769640299863669 0 0 0
663 221 1 0.5897 3.9636834584310456 6.898920211024697 15.690963534198318 0 0 0
109 37 2 -1.1794 2.733930329490581 8.71789302172914 20.063732848294876 0 0 -1
673 225 2 -1.1794 2.6769130342070877 5.135603769336264 20.617821519917022 0 0 0
667 223 2 -1.1794 0.49024129423667673 5.602361733322831 15.676346809009322 0 0 0
111 37 1 0.5897 3.6695177391088536 8.87570296843598 20.19030613859838 0 0 -1
762 254 1 0.5897 4.625095834119596 8.08669402505293 17.372215090499452 0 0 0
123 41 1 0.5897 3.5422899117760838 12.350237733750408 0.9647020819880884 0 0 0
127 43 2 -1.1794 0.4070151971491665 12.39603563441952 1.6504033509088607 0 0 0
120 40 1 0.5897 1.0169270889910005 11.189050807462282 3.1118672021640816 0 0 0
125 42 1 0.5897 4.814777030661999 10.574888037869657 4.032454325800442 0 0 0
118 40 2 -1.1794 1.1033041243291815 10.348371735996146 3.5613734309613103 0 0 0
119 40 1 0.5897 2.0453771880341174 10.242864154871812 3.6940725341858083 0 0 0
783 261 1 0.5897 1.6969166033995036 12.005508128722145 0.3907031117682768 0 0 1
222 74 1 0.5897 4.029258223243691 14.25303606902885 2.9200530903789814 0 0 0
220 74 2 -1.1794 4.070195974010038 14.794472470331447 3.708322623773828 0 0 0
129 43 1 0.5897 0.45905884688237786 13.349851821988974 1.712289202350826 0 0 0
240 80 1 0.5897 2.194324275913088 14.311531718323563 4.363015343214018 0 0 0
124 42 2 -1.1794 4.039376262539633 10.317616825898403 3.533635607585637 0 0 0
122 41 1 0.5897 3.9010350992300022 11.847778220840446 2.3470076833570017 0 0 0
238 80 2 -1.1794 1.6484650963594052 14.14811810761082 5.132157358658878 0 0 0
121 41 2 -1.1794 3.9874773478868146 12.608080376126273 1.7718988860679057 0 0 0
188 63 1 0.5897 -0.0018617790448232086 10.362228746849691 4.815157218038644 1 0 0
317 106 1 0.5897 0.017168995083153504 13.899501462198241 5.059074721268732 1 0 0
133 45 2 -1.1794 2.4976568111865474 12.007629055922463 6.550149011050289 0 0 0
134 45 1 0.5897 2.061277699633442 12.312296604917663 7.345759588631272 0 0 0
135 45 1 0.5897 3.426461834510413 12.179694713370324 6.704957953738832 0 0 0
453 151 1 0.5897 1.2499585565496933 11.901921437148236 9.42323808908712 0 0 0
452 151 1 0.5897 0.03409561155333307 12.60078992738188 8.852943353015304 0 0 0
446 149 1 0.5897 4.309469073775078 12.870330136783563 8.914221818259911 0 0 0
451 151 2 -1.1794 0.9910282907175108 12.607993674422149 8.831044769131541 0 0 0
450 150 1 0.5897 3.8738093576523696 10.453993255377469 9.629285894657544 0 0 0
573 191 1 0.5897 0.8458115209576856 14.515763377861955 9.526410344051914 0 0 0
445 149 2 -1.1794 4.585228270504649 12.077354542863 8.454411878387416 0 0 0
239 80 1 0.5897 1.8660695494565607 13.253851602724422 5.395271772686333 0 0 0
544 182 2 -1.1794 3.857389596427233 14.428207648486849 9.975144044774241 0 0 0
434 145 1 0.5897 2.4697562390686802 10.12439878386474 6.558192832340432 0 0 0
444 148 1 0.5897 2.0191098297805143 10.064918727060016 11.121116514519636 0 0 0
775 259 2 -1.1794 0.5962699626271367 12.859033161311974 15.410223804372428 0 0 0
562 188 2 -1.1794 1.8471756995946333 13.678963727853754 11.757373998347877 0 0 0
563 188 1 0.5897 2.277175998605859 12.94979558777143 12.20417373484541 0 0 0
457 153 2 -1.1794 2.6458374144243124 11.805093308667987 13.798493723053415 0 0 0
458 153 1 0.5897 1.8360059922188934 12.140012862362902 14.183453662295081 0 0 0
459 153 1 0.5897 3.3332491899098757 12.088467617263117 14.401321862820653 0 0 0
449 150 1 0.5897 4.708257192815031 10.187801206555054 10.864101691286406 0 0 0
769 257 2 -1.1794 4.742452971348042 12.542731725127664 15.500427180287003 0 0 0
564 188 1 0.5897 2.1045052300026406 14.452856434809412 12.258509597543512 0 0 0
442 148 2 -1.1794 1.1031381771129136 10.276880874914257 10.941353896239905 0 0 0
545 182 1 0.5897 3.267763672419422 14.124614494824984 10.665377959695734 0 0 0
546 182 1 0.5897 4.728362179794091 14.392403823202663 10.370590429745763 0 0 0
777 259 1 0.5897 0.7135024625343612 13.80900882808223 15.419676903364268 0 0 0
774 258 1 0.5897 4.220697072972196 11.457147886121087 16.91077494949772 0 0 0
886 296 2 -1.1794 2.087388229881051 13.819911237096525 18.89335022300397 0 0 0
768 256 1 0.5897 0.8196983960948472 11.45781666885677 16.97241888149388 0 0 0
869 290 1 0.5897 3.4080171555791927 14.383672887818665 17.681389631771097 0 0 0
766 256 2 -1.1794 1.2317094149581007 10.819386407836921 17.554593116550194 0 0 0
887 296 1 0.5897 2.386543674553826 14.450140560856758 19.548771422304597 0 0 0
773 258 1 0.5897 3.0364576039007205 10.886229202673595 17.661500977281932 0 0 0
888 296 1 0.5897 2.246094668495838 12.964622600061137 19.292805787938953 0 0 0
868 290 2 -1.1794 4.22064305303877 14.641083768539344 17.24592349201047 0 0 0
767 256 1 0.5897 0.7875092164193742 10.938417405616539 18.394063229579842 0 0 0
772 258 2 -1.1794 3.9902215347472527 10.959914690976175 17.69556640234886 0 0 0
782 261 1 0.5897 2.3721524181883984 10.837484589864616 20.397126643221092 0 0 0
965 322 1 0.5897 0.30512177327283213 14.00803933841788 19.011306040331462 1 0 0
771 257 1 0.5897 4.465589835449847 13.306060587533604 16.00733879877238 0 0 0
870 290 1 0.5897 4.911626193900268 14.387085366427884 17.857704952416796 0 0 0
781 261 2 -1.1794 2.4183644626735172 11.788740468694916 20.49341966635029 0 0 0
227 76 1 0.5897 1.074980708271913 17.958668983003854 2.9023814868631503 0 0 0
234 78 1 0.5897 3.2222802263078907 17.590855093801544 3.6394523858244527 0 0 0
233 78 1 0.5897 4.230086903649862 18.194596672579173 2.6845788673376574 0 0 0
249 83 1 0.5897 1.5158433927774786 15.414296720406577 1.3563881852930353 0 0 0
226 76 2 -1.1794 1.3752434726483114 17.354589746964116 3.581467703064322 0 0 0
235 79 2 -1.1794 0.550142837708543 19.18740911491104 1.884364927614118 0 0 0
232 78 2 -1.1794 4.161192628054856 17.635811658359 3.458705416536358 0 0 0
230 77 1 0.5897 4.218046726878683 19.104811588487966 0.6420015858777 0 0 0
247 83 2 -1.1794 0.8353691346116183 15.105699873026605 1.954654743298718 0 0 0
228 76 1 0.5897 0.9192938108466164 17.638415514845647 4.373798030784178 0 0 0
248 83 1 0.5897 0.8524211698486257 15.730002602917722 2.680058187647819 0 0 0
890 297 1 0.5897 1.8577512118225168 18.871476292402882 0.5444954949146326 0 0 1
229 77 2 -1.1794 4.631706538053031 19.60001212712038 1.3490450475730846 0 0 0
221 74 1 0.5897 4.237151587125045 15.67925377487303 3.3834068340686017 0 0 0
219 73 1 0.5897 3.8016248742728904 15.944896044417828 0.18294950003947666 0 0 0
24 8 1 0.5897 2.4537237475973512 19.994113190848566 5.128309084379492 0 -1 0
236 79 1 0.5897 0.7135095031335994 20.072927259705526 2.209110859785706 0 0 0
241 81 2 -1.1794 2.5464418068024615 18.69565485554058 6.430894126373526 0 0 0
571 191 2 -1.1794 0.4129465667495745 15.310033845153622 9.213303256454093 0 0 0
243 81 1 0.5897 1.8264262134183848 18.89442178204874 7.029491046459876 0 0 0
555 185 1 0.5897 3.7157005635412688 19.015993080036058 7.64967144810289 0 0 0
559 187 2 -1.1794 0.7058321556772771 19.471927736175296 8.284658336328855 0 0 0
542 181 1 0.5897 1.8688910633561493 15.725846246143151 7.990550964412549 0 0 0
242 81 1 0.5897 2.5894634159713545 17.73950053570648 6.416364215518891 0 0 0
541 181 2 -1.1794 2.4350813622421614 15.844772177866478 7.227985362139157 0 0 0
572 191 1 0.5897 0.49640329584159393 15.930278713001073 9.937575050481087 0 0 0
543 181 1 0.5897 1.9845210000222138 15.383879556358602 6.520315716535793 0 0 0
553 185 2 -1.1794 4.139280236548342 19.291637220082382 8.462586095218649 0 0 0
576 192 1 0.5897 4.29544108782382 16.003474436815612 7.3603113767808575 0 0 0
558 186 1 0.5897 3.796814870068959 17.89798088388789 9.682786155382965 0 0 0
551 184 1 0.5897 0.8525076423073454 18.373692746816193 9.936301695074798 0 0 0
557 186 1 0.5897 3.948287736478136 16.457942283867773 10.124733523677659 0 0 0
550 184 2 -1.1794 0.9886682963148499 17.721384563694205 10.623467075263623 0 0 0
885 295 1 0.5897 1.6461255166408644 19.107496512864643 14.948649038013006 0 0 0
552 184 1 0.5897 1.907483183417608 17.467992758350295 10.535173011532992 0 0 0
565 189 2 -1.1794 2.828519261890626 18.73056561009487 13.426840785831509 0 0 0
566 189 1 0.5897 2.871126314972573 17.80499043199893 13.186594940008371 0 0 0
567 189 1 0.5897 2.4139885149193594 19.154667685962906 12.6755104130259 0 0 0
865 289 2 -1.1794 2.6334525547546144 15.88066712458511 13.398113855835637 0 0 0
867 289 1 0.5897 2.164737150357869 15.785895812523917 14.227306216715343 0 0 0
879 293 1 0.5897 4.534146010808214 18.96675246592462 14.746481470429789 0 0 0
866 289 1 0.5897 3.558857311407603 15.843049549007858 13.639874079467493 0 0 0
556 186 2 -1.1794 3.678224535815843 17.32135204212061 10.437555296245685 0 0 0
548 183 1 0.5897 4.865602662341058 18.264624681324026 11.808379024666994 0 0 0
896 299 1 0.5897 0.007662715719264593 15.664254432466642 15.03329950004825 0 0 0
621 207 1 0.5897 0.08779450448289028 18.014699887838134 12.352385257732886 1 0 0
874 292 2 -1.1794 0.799174284753061 17.215274402830733 17.704955808921653 0 0 0
883 295 2 -1.1794 1.0280627204050912 19.29011874492065 15.656386376402354 0 0 0
876 292 1 0.5897 0.8830881721123962 17.970674442618556 17.123066560210752 0 0 0
875 292 1 0.5897 0.08414764425097157 17.44714137358447 18.297599615825938 0 0 0
880 294 2 -1.1794 3.7408907577003587 17.50695419260737 17.615263516212984 0 0 0
881 294 1 0.5897 2.840518727022263 17.30913283241202 17.873043087531542 0 0 0
882 294 1 0.5897 4.1497697310168284 16.649909432578667 17.494543864136226 0 0 0
895 299 2 -1.1794 0.7515956836109778 15.477039701447605 15.605778797727233 0 0 0
878 293 1 0.5897 4.553121325815506 18.45175959050693 16.169968150905355 0 0 0
897 299 1 0.5897 0.703757081447545 16.14656583810446 16.28819927773175 0 0 0
891 297 1 0.5897 2.318545700464661 19.126539243570065 19.81844206107281 0 0 0
889 297 2 -1.1794 2.367915639423898 18.484220521009412 20.52643690710847 0 0 0
877 293 2 -1.1794 4.965334724829091 19.093508705763604 15.591607461124138 0 0 0
218 73 1 0.5897 2.5932120982876485 16.765092766482663 20.477512945916942 0 0 -1
217 73 2 -1.1794 2.8998007171878974 15.862623313824034 20.566087798493 0 0 -1
873 291 1 0.5897 4.966939074730674 17.749032253648554 18.821164694368186 0 0 0
68 23 1 0.5897 7.887917601256291 2.2918163909723486 1.5824169564978448 0 0 0
69 23 1 0.5897 6.464510717215195 1.9763866488917654 1.9903039936434337 0 0 0
67 23 2 -1.1794 7.362638660072926 1.9845741900654832 2.321291110838649 0 0 0
273 91 1 0.5897 7.564429833373623 0.02447726229250413 2.41511274337938 0 1 0
47 16 1 0.5897 7.515689428225067 3.349803187499682 3.3415202473943224 0 0 0
6 2 1 0.5897 5.028974338933665 0.9308216638163089 3.765089922611827 0 0 0
46 16 2 -1.1794 7.781103906411822 4.013808912651821 3.977844942468188 0 0 0
59 20 1 0.5897 8.562619219088065 2.4027199066833975 5.014312329615006 0 0 0
48 16 1 0.5897 7.049768274096444 4.062069771757319 4.593531638575991 0 0 0
53 18 1 0.5897 9.827437305387482 4.00864673152672 4.035781717597676 0 0 0
41 14 1 0.5897 9.779424357256264 0.9628275453965396 3.8261288742795165 0 0 0
34 12 2 -1.1794 5.362057065471159 2.2183379332356625 0.3978851622828451 0 0 0
9 3 1 0.5897 4.972960252796766 4.4402208017452915 5.010717820120932 0 0 0
28 10 2 -1.1794 6.088610719056735 0.18459015151086566 5.1518462916157475 0 0 0
391 131 2 -1.1794 7.366852372789241 1.8439141185669863 8.982428656142686 0 0 0
393 131 1 0.5897 7.1377787881194115 0.9188132190598646 8.892913781191556 0 0 0
360 120 1 0.5897 5.282780320484871 1.403861967732779 6.61664683783024 0 0 0
392 131 1 0.5897 8.16593027340843 1.944428070737513 8.465107017760413 0 0 0
361 121 2 -1.1794 9.732099752989805 2.893249964171521 7.5027285412970715 0 0 0
8 3 1 0.5897 5.491693707223046 3.8247659759471677 6.2929313300261684 0 0 0
362 121 1 0.5897 9.832580116842072 3.669796276080359 6.952135347471867 0 0 0
371 124 1 0.5897 7.569807735564197 3.362810622661525 9.869895341741875 0 0 0
359 120 1 0.5897 5.450741407200171 2.1795283704346464 7.905866458305673 0 0 0
358 120 2 -1.1794 5.000044418732746 2.202768403626402 7.061725227901793 0 0 0
7 3 2 -1.1794 5.7468550317579545 4.4013054036542165 5.572688687071224 0 0 0
60 20 1 0.5897 9.353850203253035 1.79245056757255 6.151584282016387 0 0 0
370 124 2 -1.1794 7.603817008962135 4.255020320263868 10.214905552275773 0 0 0
58 20 2 -1.1794 8.72817378828916 1.5726710686331509 5.461331707060389 0 0 0
29 10 1 0.5897 6.936477932001624 0.5463359813520908 5.40976581874063 0 0 0
372 124 1 0.5897 6.930247779202198 4.275257038885989 10.894704593447132 0 0 0
686 229 1 0.5897 8.755279088824219 2.8217537779917023 14.550232508654355 0 0 0
682 228 2 -1.1794 5.4231959567242 2.837372299473434 14.20528499298825 0 0 0
352 118 2 -1.1794 5.767360566389608 1.0457200860280478 12.026628529580254 0 0 0
331 111 2 -1.1794 5.628651643706419 4.691540730498674 12.325811991076565 0 0 0
685 229 2 -1.1794 9.27233277430232 3.254018639411019 13.870480713486993 0 0 0
353 118 1 0.5897 6.71642062592101 1.1338643948144815 11.93856373512215 0 0 0
684 228 1 0.5897 5.5197320863589825 3.518202942395782 13.539385850582958 0 0 0
382 128 2 -1.1794 8.482626796483322 1.2070131526967809 12.183936108616312 0 0 0
383 128 1 0.5897 8.769467673409746 1.9765727365887753 12.675592009192652 0 0 0
377 126 1 0.5897 9.50069321877114 4.4506213404198345 10.36676261370212 0 0 0
354 118 1 0.5897 5.557732491821917 1.507724576840483 12.838330401862441 0 0 0
384 128 1 0.5897 8.825077657505206 1.3450641936127237 11.300835840987316 0 0 0
717 239 1 0.5897 6.759478942923337 2.5429193211753787 15.364804921336605 0 0 0
715 239 2 -1.1794 7.578072275986183 2.2681080276588887 15.777880384082682 0 0 0
702 234 1 0.5897 9.786544926682522 4.059945600498541 17.713157838405344 0 0 0
694 232 2 -1.1794 7.832110802307577 4.2022424094595054 17.627407897498685 0 0 0
716 239 1 0.5897 7.479978586965374 1.3238025671631906 15.900194083402857 0 0 0
706 236 2 -1.1794 8.904437715588992 0.4534010553352421 18.894260688556834 0 0 0
689 230 1 0.5897 9.960865573632258 1.0540085271915303 17.6429703638062 0 0 0
676 226 2 -1.1794 6.064257973854618 0.20722990662784774 18.910271705897188 0 0 0
37 13 2 -1.1794 9.091578454412977 2.5934710157138086 20.646482473858576 0 0 -1
708 236 1 0.5897 7.958869143327535 0.31081765201219025 18.85157769677882 0 0 0
695 232 1 0.5897 7.8319915119796715 3.51550368709418 16.96058243578937 0 0 0
677 226 1 0.5897 5.684955378992676 0.14712756380736242 18.033556611030974 0 0 0
38 13 1 0.5897 9.028966601362743 1.9928223072385047 19.90381104747393 0 0 -1
657 219 1 0.5897 6.40512497335961 3.9002458437887535 18.92811253344467 0 0 0
36 12 1 0.5897 5.6268640363326705 3.0321756052144395 20.66244544602249 0 0 -1
710 237 1 0.5897 9.029312449054036 4.5869542616596135 20.08227878145405 0 0 0
35 12 1 0.5897 5.3606271308308315 1.566987542235395 20.38974893695032 0 0 -1
655 219 2 -1.1794 5.7129321155207515 4.370865890361362 19.392490214762496 0 0 0
56 19 1 0.5897 6.616467938183255 6.073726106494027 1.7722479260604753 0 0 0
143 48 1 0.5897 5.91424621624593 9.00247250698903 1.184850298193153 0 0 0
177 59 1 0.5897 8.220568421903684 9.117020945897577 1.4054531083118378 0 0 0
175 59 2 -1.1794 7.613486176922011 8.917449002243908 2.118093484890253 0 0 0
55 19 2 -1.1794 7.551582376115907 6.059024286214957 1.9761234630681666 0 0 0
176 59 1 0.5897 7.563765081411057 7.96159039822877 2.1304161118149763 0 0 0
142 48 2 -1.1794 5.287898998677479 9.070557488879569 0.46422751061694806 0 0 0
57 19 1 0.5897 7.612186440287379 5.556734069204477 2.7886711909232775 0 0 0
711 237 1 0.5897 8.496640349771212 5.617216946443681 0.36200889012972765 0 0 1
166 56 2 -1.1794 8.923253284830814 7.910893245127156 4.820902163088417 0 0 0
138 46 1 0.5897 7.154708645873896 7.410354471362269 4.569622641449674 0 0 0
136 46 2 -1.1794 6.2224769507781446 7.269482133902805 4.735020612992831 0 0 0
147 49 1 0.5897 9.81086706395224 9.622899488919211 0.21344655188322767 0 0 0
137 46 1 0.5897 6.181178188140792 6.414049789428074 5.1625974874795 0 0 0
501 167 1 0.5897 6.832404099048961 9.03663563241113 8.424950583801818 0 0 0
500 167 1 0.5897 7.831874155580198 9.580441141816081 9.423575995544601 0 0 0
380 127 1 0.5897 7.678552816174107 6.886423021246431 8.241084097931383 0 0 0
471 157 1 0.5897 8.688448050500023 9.763210772679606 7.531453968169202 0 0 0
499 167 2 -1.1794 7.711399178127834 8.888138158072886 8.773608763884987 0 0 0
469 157 2 -1.1794 9.168846955281767 9.956446328550667 6.72641906218509 0 0 0
379 127 2 -1.1794 7.658068860697345 6.044434628024771 7.786238726481236 0 0 0
62 21 1 0.5897 8.76815704245235 5.726985315206121 6.4836382314843215 0 0 0
338 113 1 0.5897 5.741563566174636 5.749556435483415 7.756086889066448 0 0 0
167 56 1 0.5897 9.167130936796292 7.077251179038565 5.223207851400075 0 0 0
61 21 2 -1.1794 9.580694284775646 5.47590687908066 6.044355813995909 0 0 0
467 156 1 0.5897 5.674441784717935 8.377231668970737 6.260803242803063 0 0 0
466 156 2 -1.1794 5.508348741010069 8.994382127134653 6.973406207869448 0 0 0
381 127 1 0.5897 7.8896415036758745 5.40303635310483 8.457987032492289 0 0 0
168 56 1 0.5897 8.927726726286645 8.537155891835292 5.544810506676395 0 0 0
790 264 2 -1.1794 5.4806784920690905 9.080746580251942 14.057497520053733 0 0 0
793 265 2 -1.1794 9.673154685880059 9.694076982070717 14.45012672474754 0 0 0
794 265 1 0.5897 9.41558451259525 9.142027311864622 13.71177650698545 0 0 0
333 111 1 0.5897 5.726071528239641 5.640848143803405 12.400619434450848 0 0 0
387 129 1 0.5897 8.882744602369648 6.538265896444092 13.167486633379914 0 0 0
460 154 2 -1.1794 5.753885741366474 7.488123168202193 11.89592559174026 0 0 0
490 164 2 -1.1794 8.898447602244964 8.246513410143166 11.991330339180855 0 0 0
461 154 1 0.5897 5.656131138333574 8.128505174649186 12.60063022186182 0 0 0
492 164 1 0.5897 8.042401501638015 7.998606424333788 11.642079413312384 0 0 0
385 129 2 -1.1794 8.847930844234499 6.1677043307327715 14.049363980415007 0 0 0
491 164 1 0.5897 9.456035298497111 8.33648468983159 11.218519541023142 0 0 0
462 154 1 0.5897 5.1841774706654205 7.810828822173722 11.19768362598411 0 0 0
791 264 1 0.5897 5.96713023491109 9.011216446683052 14.878945591348874 0 0 0
705 235 1 0.5897 7.614856015763986 6.1807731281591245 15.378044134430779 0 0 0
824 275 1 0.5897 8.131313076834884 9.181595261705441 15.4893640215824 0 0 0
386 129 1 0.5897 9.10152622941398 5.251798719774599 13.935012005184507 0 0 0
815 272 1 0.5897 8.772614719378932 6.857693158366909 19.09015628545157 0 0 0
709 237 2 -1.1794 9.077152132114986 5.517692121922827 20.30076149627071 0 0 0
816 272 1 0.5897 8.713340104053406 8.351081081501443 19.3316127839186 0 0 0
784 262 2 -1.1794 5.807942595897789 7.3141620047074225 18.98385518021447 0 0 0
785 262 1 0.5897 5.562796033826586 6.5504523444719736 19.50627770230117 0 0 0
786 262 1 0.5897 6.628351606862894 7.061788586540235 18.560207692267646 0 0 0
814 272 2 -1.1794 8.704639905670112 7.696227285706332 18.633515723043097 0 0 0
825 275 1 0.5897 7.233982882677399 8.178591479186167 16.182719719017037 0 0 0
823 275 2 -1.1794 7.325451584632697 9.114018066705615 16.001448316656933 0 0 0
703 235 2 -1.1794 6.956641214445602 6.3627025114753515 16.04877819649652 0 0 0
144 48 1 0.5897 5.647334318241341 8.506200264119032 20.473008600605823 0 0 -1
704 235 1 0.5897 6.119104413203671 6.26698299966814 15.595339598147175 0 0 0
696 232 1 0.5897 7.510095187574611 4.979759496616044 17.171274943558906 0 0 0
145 49 2 -1.1794 8.946664592071723 9.870107596964765 20.577658334322884 0 0 -1
164 55 1 0.5897 5.968677194999683 12.545027128819605 1.573922016046125 0 0 0
156 52 1 0.5897 9.075821721713716 11.389011447329633 3.9607331142735203 0 0 0
276 92 1 0.5897 9.235875474217757 14.502388922486697 5.006805454995487 0 0 0
165 55 1 0.5897 7.167321294164012 12.190590808122467 2.4280630531038603 0 0 0
154 52 2 -1.1794 8.128381747528497 11.3335814936243 3.8360664749801776 0 0 0
163 55 2 -1.1794 6.917514413994494 12.657804129249078 1.6308430609605526 0 0 0
285 95 1 0.5897 7.390014895932305 14.291027748563529 2.0510851359966478 0 0 0
246 82 1 0.5897 5.340368127569585 14.22666394376584 4.902241236506556 0 0 0
819 273 1 0.5897 8.358139274970643 12.438871985230689 0.4668626192148439 0 0 1
155 52 1 0.5897 7.995354732242829 10.507135220565383 3.371792012595742 0 0 0
817 273 2 -1.1794 9.185074805789206 12.580621403280512 0.006079473010622394 0 0 1
171 57 1 0.5897 9.457554289638978 12.08373192865211 6.604748180614335 0 0 0
487 163 2 -1.1794 7.380907871930144 12.927773250060152 8.926647233181633 0 0 0