LAMMPS data file via write_data, version 30 Jul 2021, timestep = 2250000

1008 atoms
2 atom types
672 bonds
1 bond types
336 angles
1 angle types

-3.262820534540216 14.872819534095663 xlo xhi
-0.12240018031432598 22.70239918031445 ylo yhi
-0.14746847069742053 19.377466470699687 zlo zhi
-0.22829239190541634 -6.598651806443415 0.2516901613990513 xy xz yz

Masses

1 1.008
2 15.999

Pair Coeffs # lj/cut/tip4p/long/omp

1 0 0
2 0.21084 3.1668

Bond Coeffs # harmonic/omp

1 450 0.9572

Angle Coeffs # harmonic/omp

1 55 104.52

Atoms # full

122 41 1 0.5897 -2.409229369160062 2.0945720093194753 1.4824123629918091 1 0 0
55 19 2 -1.1794 -0.8123689955108206 4.307298949398687 3.5475012874670755 0 0 0
56 19 1 0.5897 -1.3847208897562184 3.6407503881053978 3.1675264709551025 0 0 0
123 41 1 0.5897 -3.307159254486569 2.767713677083087 2.4986191679425773 1 0 0
602 201 1 0.5897 -0.2016341281878593 5.270491405128893 0.7819826853344669 1 0 1
86 29 1 0.5897 -2.0002861859847583 0.9683024520747134 3.956910766238458 1 0 0
121 41 2 -1.1794 -2.4888832843787982 2.277557213301347 2.4185947614439485 1 0 0
158 53 1 0.5897 -4.231277981610377 4.332809095347001 4.054328933956399 1 0 0
57 19 1 0.5897 -0.05429349664505123 4.333828409959509 2.963627318357805 0 0 0
482 161 1 0.5897 -0.7961236466041246 0.18156529213718514 0.4689759380320715 1 1 0
100 34 2 -1.1794 -3.1585303646282563 4.708914384053045 0.3456001912988032 1 0 0
601 201 2 -1.1794 -0.41026494929028967 4.683719639911654 0.05504819658794141 1 0 1
101 34 1 0.5897 -2.2200240421623314 4.620356738765422 0.17941229616831883 1 0 0
603 201 1 0.5897 0.31840916313537315 4.063522197379662 0.030468334495286464 1 0 1
157 53 2 -1.1794 -3.8596765550462093 4.950173060114955 4.684435219684753 1 0 0
163 55 2 -1.1794 -2.2852304112301285 1.2132608732492567 -0.1403289006526345 1 0 0
159 53 1 0.5897 -3.2847389314581843 4.416444973319615 5.232806021709388 1 0 0
69 23 1 0.5897 -2.8152980354751014 1.395332696799539 8.669725546535117 0 0 0
67 23 2 -1.1794 -2.546267824916932 0.5714814604809777 8.263294180861887 0 0 0
669 223 1 0.5897 -5.435626963112293 1.6112011837161364 8.926202023018869 1 0 0
97 33 2 -1.1794 -4.447831445408193 4.823241357563384 9.414161285864306 1 0 0
135 45 1 0.5897 -1.8659501064165696 3.770703005790283 6.573458537939396 1 0 0
133 45 2 -1.1794 -2.5246374588024265 3.180162921066671 6.207851768366625 1 0 0
126 42 1 0.5897 -4.082539054409339 2.655676912181351 7.021172645174869 1 0 0
134 45 1 0.5897 -2.038371194554191 2.386058156234882 5.986020089757297 1 0 0
124 42 2 -1.1794 -4.908147777208853 2.2909741064925258 7.339987933452593 1 0 0
98 33 1 0.5897 -4.350518715307138 5.086117180249774 8.49892907936117 1 0 0
125 42 1 0.5897 -5.564368565318005 2.950721296660954 7.115841028000669 1 0 0
68 23 1 0.5897 -3.245187439612559 0.3715577338244257 7.640595890862453 0 0 0
90 30 1 0.5897 -5.044211972262801 1.4860567651621264 5.538503992727785 1 0 0
87 29 1 0.5897 -3.2160602705191748 0.841802225035114 4.85018727809777 1 0 0
85 29 2 -1.1794 -2.2617932803593757 0.7673196127970379 4.855502099912809 1 0 0
606 202 1 0.5897 -6.21846743914109 4.737021802157858 9.445486453131283 1 0 0
662 221 1 0.5897 -7.701234353966197 4.767706168928939 14.065847417761368 1 0 0
627 209 1 0.5897 -6.6394937539415535 3.0269580500163973 12.20953066281338 1 0 0
625 209 2 -1.1794 -5.765176118805796 2.707338156853243 11.986727569670935 1 0 0
561 187 1 0.5897 -3.6678805196582687 3.66588891326291 13.749708485256232 0 0 0
559 187 2 -1.1794 -3.881444828642538 4.4061868415411105 13.18179714421726 0 0 0
560 187 1 0.5897 -4.523462967934833 4.056999086311177 12.563649423179152 0 0 0
626 209 1 0.5897 -5.5465587043161015 2.096344911907202 12.6903315163782 1 0 0
668 223 1 0.5897 -5.845428669276113 1.6877061794271413 10.381588358332943 1 0 0
524 175 1 0.5897 -3.4279301353324465 3.3608030771795248 9.933705713132433 0 0 0
667 223 2 -1.1794 -5.701562559249312 1.0669056300202944 9.667294587674458 1 0 0
99 33 1 0.5897 -4.069054738885297 5.546905522316227 9.913284293201485 1 0 0
523 175 2 -1.1794 -2.8080001798607244 2.6350820877301557 10.00604581429797 0 0 0
987 329 1 0.5897 -3.317014831245084 0.14059325261251415 11.773987525663914 1 1 0
986 329 1 0.5897 -4.392928441224669 0.16928160166355122 10.709402559064074 1 1 0
629 210 1 0.5897 -8.886778150655928 3.3566831685124487 16.716428913406524 1 0 0
614 205 1 0.5897 -7.468717472477912 5.672370416890985 17.718323881616428 1 0 0
637 213 2 -1.1794 -5.771765243370853 3.5561764588441602 16.10017851521343 1 0 0
630 210 1 0.5897 -8.428132445507885 2.057168704439613 16.089569954743048 1 0 0
639 213 1 0.5897 -6.08265947103672 4.268824928346437 15.541929849541313 1 0 0
628 210 2 -1.1794 -8.280804667379805 2.6268945325112893 16.844546489407584 1 0 0
638 213 1 0.5897 -6.566304630966689 3.1955694441773965 16.49382880184144 1 0 0
20 7 1 0.5897 -5.1908334411005095 2.201740376480186 18.906492865778233 0 0 -1
164 55 1 0.5897 -8.38989743183008 1.8960299613847917 18.687183658681995 1 0 -1
571 191 2 -1.1794 -5.418681042972857 0.5039692954466487 18.01354236878189 0 0 0
661 221 2 -1.1794 -7.236949540299479 5.461264410603701 14.534569928698632 1 0 0
590 197 1 0.5897 -5.25832960309906 1.4704691783863555 15.234439229938808 1 0 0
165 55 1 0.5897 -9.418135749234356 0.8121733575278001 18.93213901446827 1 0 -1
591 197 1 0.5897 -4.982794936066288 0.08911538896735427 14.679468745302167 1 0 0
589 197 2 -1.1794 -5.5552214584548025 0.8484566162898874 14.57018210138787 1 0 0
572 191 1 0.5897 -6.23538334220849 0.1079250074894113 17.70957507947736 0 0 0
593 198 1 0.5897 -7.55320311862045 0.7124659781436217 14.539810711679666 1 0 0
224 75 1 0.5897 -0.7066620519557523 11.216318724743939 4.052294836975985 0 0 0
146 49 1 0.5897 -1.2725526825310514 6.785941306293294 2.2945351816797657 1 0 0
331 111 2 -1.1794 -1.7753390911238986 8.610870869371164 0.1527362816292842 1 0 0
289 97 2 -1.1794 -2.8961669617206427 9.87791653123304 2.3223005942944024 1 0 0
145 49 2 -1.1794 -0.3821283714203867 6.867574310258874 1.9528188596908307 1 0 0
255 85 1 0.5897 -2.347487793410969 8.704799717419792 4.004283092680584 1 0 0
147 49 1 0.5897 -0.47966488349446257 7.3760206136083495 1.1477547506900998 1 0 0
112 38 2 -1.1794 -3.115453795591885 6.589142084889724 2.4576609609440387 1 0 0
332 111 1 0.5897 -2.301790762660201 9.050946128769178 0.8201661353559927 1 0 0
290 97 1 0.5897 -2.316673713627439 10.567795426733415 2.6456198487670837 1 0 0
291 97 1 0.5897 -3.7693632933880727 10.142982891592672 2.611302973593841 1 0 0
187 63 2 -1.1794 1.083233302179317 10.436062036909489 0.07282559222645849 0 0 0
113 38 1 0.5897 -3.329206649687138 6.22759099259068 3.3177881752721925 1 0 0
114 38 1 0.5897 -3.064549995456618 5.825792857322016 1.8823348568937934 1 0 0
9 3 1 0.5897 -0.9646072835900306 5.843502449152788 4.529103115452431 0 0 0
111 37 1 0.5897 -5.1654110594561455 6.547245952527059 7.124129952484474 1 0 0
110 37 1 0.5897 -4.204669238045566 5.812010685417001 6.213979342234344 1 0 0
237 79 1 0.5897 -2.246047559402221 8.800819634166547 8.401016115902545 0 0 0
294 98 1 0.5897 -5.197889855519073 9.840919969501218 8.24690442403996 1 0 0
109 37 2 -1.1794 -4.2773962130426355 6.1916788615851 7.0896596474128035 1 0 0
236 79 1 0.5897 -2.9140273749840535 7.765419100600121 7.521374426805102 0 0 0
303 101 1 0.5897 -1.7536118767123408 11.291910213372862 6.450744027554223 1 0 0
302 101 1 0.5897 -2.5046822500376384 10.139446956415966 5.8184823726007355 1 0 0
292 98 2 -1.1794 -5.206965576747635 10.214474375962634 7.3656699171049524 1 0 0
235 79 2 -1.1794 -2.055946989535052 8.056472646685023 7.829959342163074 0 0 0
293 98 1 0.5897 -4.286593320385169 10.390241648173836 7.169970262855373 1 0 0
301 101 2 -1.1794 -2.6333778358221656 10.930978710974921 6.341189193321438 1 0 0
837 279 1 0.5897 -5.960230030868075 8.20122382831811 9.10986272412465 1 0 0
257 86 1 0.5897 -4.341642664726205 8.41571494268657 4.982283869257403 1 0 0
7 3 2 -1.1794 -0.7227904152183191 6.420755182264947 5.2533862286842705 0 0 0
254 85 1 0.5897 -1.9915542870694432 7.797128882354915 5.162360967901645 1 0 0
253 85 2 -1.1794 -2.5672143389961857 8.521677421966501 4.917744079013241 1 0 0
794 265 1 0.5897 -5.491096624883342 10.980415404754625 12.204302977190055 1 0 0
835 279 2 -1.1794 -5.50277403961228 8.748924958257945 9.747844581713005 1 0 0
759 253 1 0.5897 -6.0122469206091855 9.30164277347147 13.625626761364465 1 0 0
650 217 1 0.5897 -3.4019784171439276 7.601205405805486 11.533945518216571 1 0 0
649 217 2 -1.1794 -3.893269204659747 6.995602628084697 10.978829796943709 1 0 0
616 206 2 -1.1794 -6.361437515624945 6.535476109269968 11.917097386056431 1 0 0
651 217 1 0.5897 -4.753754631375821 6.934115553662437 11.393651027460983 1 0 0
795 265 1 0.5897 -5.84262211768152 9.888289761158573 11.216506898829666 1 0 0
793 265 2 -1.1794 -6.131750016990914 10.289356466448671 12.036156429137531 1 0 0
663 221 1 0.5897 -6.73996934202687 5.9183485299651295 13.85608090286806 1 0 0
617 206 1 0.5897 -6.7993872427749436 7.366020758867036 11.731120787890784 1 0 0
513 171 1 0.5897 -4.279926813674093 5.950207525979754 14.272614663355164 0 0 0
836 279 1 0.5897 -4.810114751027971 8.186359985799252 10.094131272906411 1 0 0
618 206 1 0.5897 -6.720778998777385 5.925153459258062 11.27315760751272 1 0 0
757 253 2 -1.1794 -6.142124719104668 8.741320659392255 14.390725406440392 1 0 0
613 205 2 -1.1794 -7.443621305520177 6.40874285832763 17.107326232776984 1 0 0
797 266 1 0.5897 -7.38923742202946 10.846737344636974 17.32035107131967 1 0 0
758 253 1 0.5897 -6.081999235001112 9.337122771423 15.137519399978824 1 0 0
615 205 1 0.5897 -7.2472001719285135 6.010406940376899 16.259366825453398 1 0 0
796 266 2 -1.1794 -8.266339298878187 10.541076072339443 17.55174168814606 1 0 0
805 269 2 -1.1794 -6.03110079425397 11.21470854514424 16.1001696100665 1 0 0
798 266 1 0.5897 -8.532166569376788 9.99324382742285 16.813168330550546 1 0 0
740 247 1 0.5897 -6.200874134399197 7.797717828244761 17.54542246830293 0 0 0
741 247 1 0.5897 -6.14881659504684 9.083556483378555 18.34290873399531 0 0 0
333 111 1 0.5897 -8.367254084668188 9.470121545904963 18.938100116781918 1 0 -1
739 247 2 -1.1794 -5.589318774887481 8.42264554540779 17.93494903938597 0 0 0
654 218 1 0.5897 -9.571414639014687 7.906174962247265 18.736075006277858 1 0 0
512 171 1 0.5897 -4.827798590908124 7.3174713869771795 14.622507534249857 0 0 0
511 171 2 -1.1794 -4.149279831131295 6.688466645010619 14.867757991453963 0 0 0
762 254 1 0.5897 -8.066145601236114 8.428578593006161 15.227555458720953 1 0 0
223 75 2 -1.1794 -1.453896406975171 11.666338050178567 3.6582433199732365 0 0 0
423 141 1 0.5897 -2.8873585696273665 16.664491245329195 3.6510944988624088 1 0 0
314 105 1 0.5897 -1.8764448999195298 14.344528421887775 1.9612587601473273 1 0 0
280 94 2 -1.1794 -3.640564179011108 13.667688488065457 2.2407519192207874 1 0 0
315 105 1 0.5897 -0.638044402848883 13.615016367118997 2.4366130827342913 1 0 0
282 94 1 0.5897 -3.811394662759829 13.14822292595026 3.0263588569503566 1 0 0
313 105 2 -1.1794 -0.9446874038205646 14.232543976944376 1.7726890233995167 1 0 0
500 167 1 0.5897 -1.6739063647599393 15.422476252234958 -0.04271794987611073 1 0 0
281 94 1 0.5897 -3.530027703333466 13.02033165812981 1.5443197807223425 1 0 0
770 257 1 0.5897 -0.783349780262018 13.012218597623827 0.5048663546134666 1 0 1
225 75 1 0.5897 -1.4761687432874773 12.519443825825135 4.09181505272127 0 0 0
421 141 2 -1.1794 -2.8377776198456424 16.250278288795297 4.512584397916457 1 0 0
368 123 1 0.5897 0.08999783328750066 15.661854559844517 2.0502948381212343 0 0 0
176 59 1 0.5897 -1.767174697716442 14.801122328933419 4.619497330790436 0 0 0
175 59 2 -1.1794 -1.1209614513456403 14.100178203595863 4.704732594072453 0 0 0
499 167 2 -1.1794 -2.2561988782556472 16.178605533713593 -0.11637136038077639 1 0 0
327 109 1 0.5897 -4.390915491008144 13.398187010693944 5.705325729400121 1 0 0
403 135 2 -1.1794 -2.4624001416497032 15.812965120889197 8.254954048413804 0 0 0
405 135 1 0.5897 -2.4660389498536652 16.49400392843574 8.927601394608725 0 0 0
267 89 1 0.5897 -4.029922712511334 12.942395707959111 8.972965995762017 1 0 0
277 93 2 -1.1794 -4.5997044276072785 13.992538280192916 7.5910354618727025 1 0 0
278 93 1 0.5897 -4.1379808747345805 14.825172014000495 7.492013651616329 1 0 0
404 135 1 0.5897 -1.7107139532269344 16.02592534751216 7.701864189940254 0 0 0
279 93 1 0.5897 -5.507138754005532 14.240823462186064 7.767549177949169 1 0 0
325 109 2 -1.1794 -4.054893542767863 12.828437924084007 5.0133783572894846 1 0 0
422 141 1 0.5897 -2.383986618498653 16.890383789756314 5.06087173116884 1 0 0
425 142 1 0.5897 -4.708874856696799 15.993622350159473 4.98062684052936 1 0 0
266 89 1 0.5897 -3.2365950469900286 11.726789164946055 9.402738046861545 1 0 0
326 109 1 0.5897 -3.443165504989241 12.24335574930156 5.460185407347336 1 0 0
265 89 2 -1.1794 -3.9254207671122767 12.323455550418345 9.695573336420226 1 0 0
819 273 1 0.5897 -4.235937072531678 14.103782158993848 10.38516042314761 1 0 0
729 243 1 0.5897 -4.490317987056983 13.063977435591061 13.664848905096235 0 0 0
784 262 2 -1.1794 -6.813762229580407 14.344707384163696 12.155536356057121 1 0 0
818 273 1 0.5897 -5.10645824096135 14.69844254897428 11.471748192030123 1 0 0
728 243 1 0.5897 -3.7280481053348566 12.413247737076771 12.530129553777918 0 0 0
930 310 1 0.5897 -7.777389090857213 15.972540042913383 14.38366872247776 1 0 0
786 262 1 0.5897 -7.054033440936083 14.071650016398804 13.040927517846274 1 0 0
817 273 2 -1.1794 -4.357438179030451 14.895542880885241 10.909241180653169 1 0 0
1005 335 1 0.5897 -5.197488804171703 16.117998572956342 10.037979055675354 1 0 0
727 243 2 -1.1794 -4.397255593689264 12.237176805637763 13.191516982150237 0 0 0
831 277 1 0.5897 -8.090198758251471 12.571412991739809 14.338195360936481 1 0 0
1003 335 2 -1.1794 -5.890895774462612 16.754949523577366 9.86574038144568 1 0 0
773 258 1 0.5897 -6.827471979436721 12.955837206215056 10.98173754820543 1 0 0
772 258 2 -1.1794 -6.733814138826167 12.7039462916876 10.063012236301603 1 0 0
774 258 1 0.5897 -5.861866869373503 12.312851565631094 10.009011369070754 1 0 0
908 303 1 0.5897 -6.519089312392403 15.477206578150648 17.355018594286726 0 0 0
783 261 1 0.5897 -8.845041080312125 14.447341827732853 17.334194318146743 1 0 0
926 309 1 0.5897 -5.364653964348603 16.02267232094669 14.92160785005318 1 0 0
830 277 1 0.5897 -7.5812844340099925 13.514672249853001 15.407402344945584 1 0 0
781 261 2 -1.1794 -8.014362820297688 14.051253871678774 17.070873666038423 1 0 0
782 261 1 0.5897 -7.7831968634923285 13.472975340218381 17.797732089106994 1 0 0
769 257 2 -1.1794 -7.462847378485854 12.685079434802173 19.271703928027257 1 0 0
907 303 2 -1.1794 -5.940873795604056 15.72019137326181 18.078091913688937 0 0 0
807 269 1 0.5897 -5.242364351929497 11.650289935649926 16.423306181039635 1 0 0
909 303 1 0.5897 -5.102272110388959 15.915010024713723 17.65976585664162 0 0 0
965 322 1 0.5897 -8.729102842478028 16.93136037694215 15.888746332700931 1 0 0
679 227 2 -1.1794 -4.241563092245813 14.531932638357391 15.035619330365703 0 0 0
806 269 1 0.5897 -6.494511925052352 11.89200944322021 15.607541173680342 1 0 0
501 167 1 0.5897 -8.57751739636646 16.869264744100484 18.604461223492073 1 0 -1
771 257 1 0.5897 -6.713191903990026 12.093853239590683 19.340078840874156 1 0 0
270 90 1 0.5897 -9.42728866278016 12.237836879074045 19.250178585452737 1 0 -1
925 309 2 -1.1794 -5.862058939299402 16.80255048378158 14.675534537574938 1 0 0
829 277 2 -1.1794 -7.344550640887899 13.12722581798548 14.564725068155765 1 0 0
938 313 1 0.5897 -0.8978225357414185 20.661269268599035 0.3889417514873482 1 0 1
391 131 2 -1.1794 -0.7608553318402778 19.338708874334344 3.1344093896107945 0 0 0
495 165 1 0.5897 -3.9839713768516334 21.05047029400602 4.065643004510162 1 0 0
457 153 2 -1.1794 -2.6603453709092957 17.746051511858553 2.1315303920892306 1 0 0
481 161 2 -1.1794 -0.6826711213569303 22.437651294672943 1.1588491821112565 1 0 0
449 150 1 0.5897 -3.384211341696592 20.98427613622914 1.9288349984735191 1 0 0
393 131 1 0.5897 -0.8527000201941761 20.163809994942508 3.6109336175757956 0 0 0
448 150 2 -1.1794 -3.1876310102712884 21.714501161478047 2.5157152733209 1 0 0
483 161 1 0.5897 -1.4037394150126563 22.357968529798935 1.7833511383927554 1 0 0
459 153 1 0.5897 -1.8992110203199546 18.22859553257829 2.4541402408278246 1 0 0
458 153 1 0.5897 -2.3486004552620563 17.307432627326605 1.3399052968307323 1 0 0
392 131 1 0.5897 -0.37799356249237936 18.735213718221747 3.7710985454361126 0 0 0
450 150 1 0.5897 -3.83253153147108 22.38463357131213 2.289404976708604 1 0 0
437 146 1 0.5897 -3.1671458131364267 19.690740702409563 0.5373115538296772 1 0 0
937 313 2 -1.1794 -1.1459068624947109 19.85334182360643 -0.0604707475896694 1 0 1
939 313 1 0.5897 -0.4127855700007639 19.257748958340148 0.09439320542546736 1 0 1
460 154 2 -1.1794 -5.348005285856601 17.854898775791096 7.270980515373821 1 0 0
494 165 1 0.5897 -4.274509052448327 21.024812748217453 5.551187856821639 1 0 0
471 157 1 0.5897 -3.733833214984643 18.198513584893202 6.624936081966801 1 0 0
470 157 1 0.5897 -3.2157022084848013 19.185104893281565 5.6002406108124 1 0 0
445 149 2 -1.1794 -4.684933832747591 21.81398287880644 7.054425890428126 1 0 0
446 149 1 0.5897 -4.415241447791729 21.42254525784211 7.8852057219104275 1 0 0
380 127 1 0.5897 -1.5286072384430422 19.517168739783674 7.012170903616315 0 0 0
469 157 2 -1.1794 -2.931389938959615 18.48684438357012 6.189934321509484 1 0 0
447 149 1 0.5897 -5.598251353947489 22.064920741546363 7.192683164285187 1 0 0
1004 335 1 0.5897 -5.6441428789521115 17.159181836599153 9.03391340920635 1 0 0
462 154 1 0.5897 -5.5755787924892255 17.271784907262102 6.546775464149533 1 0 0
344 115 1 0.5897 -1.008016171788821 21.037902185675495 5.757565121472008 0 0 0
433 145 2 -1.1794 -4.160715076997853 20.303632713970053 9.366066650924916 1 0 0
493 165 2 -1.1794 -4.208714426401364 20.457734905461813 4.782845311514635 1 0 0
345 115 1 0.5897 -1.540711139736171 22.15678646504657 4.888081672685385 0 0 0
343 115 2 -1.1794 -0.9175056361571907 21.430268997289115 4.889204102982812 0 0 0
435 145 1 0.5897 -5.066830533099654 20.037778333916165 9.209498515157733 1 0 0
897 299 1 0.5897 -3.761647365904378 18.747910511789776 13.695886721867401 0 0 0
962 321 1 0.5897 -5.912667958646814 17.273979546536225 12.91727503596621 1 0 0
895 299 2 -1.1794 -4.010745620576462 19.55104336191372 13.238605723391169 0 0 0
954 318 1 0.5897 -5.762696884634236 21.739919272590292 12.107853617783858 1 0 0
952 318 2 -1.1794 -6.622053633067095 21.417782129929417 12.379905382943367 1 0 0
896 299 1 0.5897 -4.846815555468676 19.340840178634338 12.822643738095412 0 0 0
998 333 1 0.5897 -7.221013923591413 20.918902929056728 13.970198699407625 1 0 0
434 145 1 0.5897 -4.207201341388789 20.874364031885914 10.13313451953523 1 0 0
961 321 2 -1.1794 -6.171681729138607 17.898491947249422 12.239738907387368 1 0 0
860 287 1 0.5897 -3.2549384020742327 18.55789167284783 9.964105609011517 0 0 0
985 329 2 -1.1794 -4.1533419554857165 22.400678065051526 11.29687044406898 1 0 0
848 283 1 0.5897 -4.20550787631947 20.94917555979896 14.328348459585133 0 0 0
953 318 1 0.5897 -7.245307980570711 21.99600889563395 11.940260030261847 1 0 0
859 287 2 -1.1794 -2.5331083277011257 17.92960500939371 9.943195506786127 0 0 0
963 321 1 0.5897 -6.003992234019737 17.441596709831583 11.415469758488747 1 0 0
964 322 2 -1.1794 -8.552210427079594 17.432414488532807 16.6849286530055 1 0 0
355 119 2 -1.1794 -5.651917664293376 18.192093667619716 19.255092847350596 0 0 -1
975 325 1 0.5897 -4.817108370957971 19.395035008800868 16.512266160735976 1 0 0
974 325 1 0.5897 -6.233079895652926 19.01725351463066 16.892041881712743 1 0 0
973 325 2 -1.1794 -5.672681524685216 19.189683341359082 16.13542231704291 1 0 0
949 317 2 -1.1794 -7.8172007263308325 21.842790500669633 17.27099206977114 1 0 0
950 317 1 0.5897 -7.771093111642181 21.266077641634336 16.508400786802213 1 0 0
951 317 1 0.5897 -7.816315035851998 21.24877944731049 18.021532185649328 1 0 0
927 309 1 0.5897 -5.738546879907046 17.406923643187618 15.407490504908875 1 0 0
997 333 2 -1.1794 -7.586389528273325 20.520797316284384 14.76029707950923 1 0 0
356 119 1 0.5897 -5.754044445164043 17.358308837976892 18.796101315637593 0 0 -1
999 333 1 0.5897 -6.866064680379179 20.006762379720044 15.125069481741722 1 0 0
966 322 1 0.5897 -8.98312782764636 18.27460943951748 16.539255914362336 1 0 0
53 18 1 0.5897 4.406486396297845 3.0185055374125267 2.619377323141778 0 0 0
54 18 1 0.5897 3.0141588308181504 3.6121541527199725 2.6493220894753224 0 0 0
31 11 2 -1.1794 1.3333476281703556 1.3315840924533247 2.3467705327858734 0 0 0
71 24 1 0.5897 3.2856887706946525 0.7146859675223722 1.7211014633324717 0 0 0
52 18 2 -1.1794 3.645406108646837 3.1352952851201388 3.1880775075646124 0 0 0
32 11 1 0.5897 1.1366753721350795 1.4427985556770708 3.2769311372636905 0 0 0
16 6 2 -1.1794 5.158303766478975 4.970524160467975 0.33020304496537406 0 0 0
46 16 2 -1.1794 1.824496341986574 4.671212018600783 2.2283639859539144 0 0 0
528 176 1 0.5897 4.436767873915259 1.9296678103679867 -0.08380562275274704 0 0 1
48 16 1 0.5897 1.881455519138437 5.282797191975727 2.962541819175161 0 0 0
70 24 2 -1.1794 3.9301883847710686 0.4930377414480902 1.0489517869893834 0 0 0
33 11 1 0.5897 0.7761636747255292 0.6045208959181557 2.0689171140305005 0 0 0
21 7 1 0.5897 1.4112431028943453 2.226745067798628 0.8699744099020053 0 0 0
6 2 1 0.5897 3.5742500488471673 1.7672334438075155 4.46455537117907 0 0 0
78 26 1 0.5897 0.38666798113642376 2.8951109214964803 4.52454386421658 0 0 0
18 6 1 0.5897 4.7009958622214585 4.1851069054933046 0.029769476040076043 0 0 0
47 16 1 0.5897 1.9691980841940566 5.213168858266522 1.4527827904160204 0 0 0
72 24 1 0.5897 4.579161054396103 -0.041963704480853056 1.5058279362119127 0 0 0
19 7 2 -1.1794 1.5012274535615386 2.6572807153403417 0.019839707856532773 0 0 0
5 2 1 0.5897 3.2637954723028955 0.3983622005437053 5.031733969720976 0 0 0
77 26 1 0.5897 0.29615076153420317 1.8610939435542833 5.626543679481539 0 0 0
59 20 1 0.5897 1.881288080398849 3.404936267948179 5.720354940743562 0 0 0
34 12 2 -1.1794 -0.10428095624575562 1.3062926781913833 7.411872953832224 0 0 0
35 12 1 0.5897 0.0858741933678302 1.908278117566483 8.13141971302003 0 0 0
43 15 2 -1.1794 -0.31198617820524976 4.6332734463946545 7.26112105267668 0 0 0
45 15 1 0.5897 0.6196874095637668 4.571314572800198 7.050365634361623 0 0 0
36 12 1 0.5897 -0.9446684975913824 0.9116532540244522 7.644875839749358 0 0 0
401 134 1 0.5897 2.262756553372073 0.3062711709079571 8.324273839948479 0 1 0
58 20 2 -1.1794 2.095716345222577 4.115407763170262 6.324956060653482 0 0 0
60 20 1 0.5897 2.877070690344297 3.8104639855577336 6.786112335532703 0 0 0
44 15 1 0.5897 -0.3331427823206172 4.866440188074547 8.189254269543317 0 0 0
4 2 2 -1.1794 3.8213176268355884 1.1647773589340071 5.16609689183842 0 0 0
522 174 1 0.5897 2.313890737024316 5.3028259671414855 9.048611576550474 0 0 0
76 26 2 -1.1794 0.7740899566056605 2.072916734799126 4.824689713157621 0 0 0
24 8 1 0.5897 0.6441244769768422 3.481145820524981 9.576659606787079 0 0 0
537 179 1 0.5897 -2.2568419042899883 1.8013179446814025 11.742763742298015 0 0 0
536 179 1 0.5897 -2.3310697386967005 1.553579125134763 13.234406607128726 0 0 0
574 192 2 -1.1794 0.63572711715985 0.5089648784980241 11.32553571245459 0 0 0
558 186 1 0.5897 -0.14907237464047451 4.035921175280752 13.067032543405082 0 0 0
525 175 1 0.5897 -1.9869595933328235 2.985433093025348 9.66045885209384 0 0 0
557 186 1 0.5897 0.2440449875989268 2.635957385571636 13.488141139139172 0 0 0
535 179 2 -1.1794 -2.0766208967537745 1.1390732047474472 12.409940172568486 0 0 0
550 184 2 -1.1794 -1.323055000991613 5.107241525134428 12.542184485102648 0 0 0
556 186 2 -1.1794 0.5830875112742717 3.4194855107048303 13.05526730422264 0 0 0
23 8 1 0.5897 0.18542701804370232 2.2791142253952703 10.374534259270924 0 0 0
576 192 1 0.5897 -0.13246754070252553 0.5280418656507753 11.896328563068172 0 0 0
22 8 2 -1.1794 -0.12053468119310251 2.9297887060641328 9.742736471684958 0 0 0
552 184 1 0.5897 -2.2210522831367685 4.777974747834079 12.580386339245104 0 0 0
551 184 1 0.5897 -1.2027148012220836 5.5727116953496125 13.369913159588291 0 0 0
587 196 1 0.5897 -1.3978744961634741 5.552478574311916 10.615299082049187 0 0 0
520 174 2 -1.1794 2.339140941255377 4.61309198173761 9.711790575543805 0 0 0
539 180 1 0.5897 -2.9045510504606646 1.8293227793126154 17.74342914871505 0 0 0
547 183 2 -1.1794 -3.808514757865874 5.343158106698985 17.355614705979406 0 0 0
563 188 1 0.5897 -0.9505171834329769 5.269098472261755 15.87270825552701 0 0 0
564 188 1 0.5897 -1.8616596046055207 4.578444101065339 16.865084962429023 0 0 0
562 188 2 -1.1794 -1.0440409230972172 4.463300950917826 16.38079044244408 0 0 0
538 180 2 -1.1794 -2.95253769523738 1.1845702102073816 17.037531580370178 0 0 0
581 194 1 0.5897 -2.667069622372277 2.1102357588003784 15.638015310841865 0 0 0
582 194 1 0.5897 -1.9073131259834604 3.355878320065715 15.234130433561667 0 0 0
540 180 1 0.5897 -3.8350091342400514 0.819955558145959 17.105133579894243 0 0 0
527 176 1 0.5897 -3.3774226620362544 3.081311228361206 19.37512484816377 0 0 0
580 194 2 -1.1794 -2.481872040234671 2.673644784698218 14.886688660005433 0 0 0
549 183 1 0.5897 -4.42050590777124 4.655581222859575 17.092983787122684 0 0 0
508 170 2 -1.1794 0.583032569796397 1.1273001115794075 14.691341383391379 0 0 0
526 176 2 -1.1794 -2.509797159550126 2.9517628755812355 18.99214580932051 0 0 0
199 67 2 -1.1794 1.1545430885384462 9.027369647844809 2.461183777710303 0 0 0
200 67 1 0.5897 0.5830121090008085 8.259693681761973 2.4784596755152575 0 0 0
240 80 1 0.5897 3.3438718042531725 7.666950749807849 1.0308014438670876 0 0 0
245 82 1 0.5897 1.0902855261434965 9.901427951869694 4.108223361317538 0 0 0
238 80 2 -1.1794 3.7482392279299885 8.226166389222865 1.6940711888566027 0 0 0
220 74 2 -1.1794 3.2639913196928516 10.785461160390044 3.4701808455779384 0 0 0
239 80 1 0.5897 3.76944708608632 9.095701764259658 1.2944876375097532 0 0 0
201 67 1 0.5897 2.0218049189923883 8.676412382677986 2.25885261550457 0 0 0
174 58 1 0.5897 3.330505283185113 9.277752525960333 4.497606695130399 0 0 0
221 74 1 0.5897 3.892894180648052 10.69044859572318 2.754812651879074 0 0 0
82 28 2 -1.1794 2.3024632237080738 6.529332522207868 0.18351601111231358 0 0 0
10 4 2 -1.1794 1.9219143481899792 6.319447112887764 4.434890409981925 0 0 0
189 63 1 0.5897 0.8997877379533668 10.131277579596167 0.9614683494867222 0 0 0
694 232 2 -1.1794 3.714594578953153 10.444748855050705 -0.09584476565848571 0 0 1
696 232 1 0.5897 4.485328362393302 11.008194438266155 -0.02672361723568674 0 0 1
188 63 1 0.5897 2.0342648685582603 10.541484507592587 0.046735867624814464 0 0 0
191 64 1 0.5897 0.651072396419293 9.76560960512258 8.585694690149321 0 0 0
246 82 1 0.5897 0.6137287635696396 9.753682002081542 5.537565542544526 0 0 0
173 58 1 0.5897 2.774212834882775 7.904317374900172 4.807721228154207 0 0 0
202 68 2 -1.1794 0.41635923918717666 8.854471544653748 6.960696704303275 0 0 0
203 68 1 0.5897 -0.46618191457002656 8.539713873739357 7.156404879315449 0 0 0
64 22 2 -1.1794 2.2304588536319123 6.769836461068415 7.93636727276956 0 0 0
204 68 1 0.5897 0.9904053826218036 8.131010815921744 7.21214560443767 0 0 0
244 82 2 -1.1794 0.653383646066013 10.378667040902458 4.813674266948419 0 0 0
588 196 1 0.5897 -1.7686321070944873 6.321637888103684 9.365242281589595 0 0 0
11 4 1 0.5897 2.321252195249876 5.775695155937206 5.113852900796638 0 0 0
65 22 1 0.5897 2.4984546885979517 7.378230172586786 8.62508014502254 0 0 0
66 22 1 0.5897 3.047408292886998 6.523283250366176 7.502664376057982 0 0 0
12 4 1 0.5897 1.0245854061653228 6.460092760026953 4.73703417582258 0 0 0
172 58 2 -1.1794 3.4087113784669505 8.551359249178216 5.115986981469678 0 0 0
692 231 1 0.5897 -1.0905281254088313 10.414941353838957 9.350757402878367 0 0 0
192 64 1 0.5897 0.9944414072140972 10.85462988152926 9.57974820231749 0 0 0
190 64 2 -1.1794 0.6014498798817951 9.984106530335698 9.516297782752797 0 0 0
691 231 2 -1.1794 -2.0362027148900643 10.304976556701313 9.450138406913998 0 0 0
8 3 1 0.5897 -0.7240380690363213 5.852634059354432 6.023727627375264 0 0 0
703 235 2 -1.1794 -2.294601193680662 9.024328179660158 11.849561535112636 0 0 0
744 248 1 0.5897 -0.0974615361632023 7.2122362984037665 10.71103496134508 0 0 0
586 196 2 -1.1794 -1.0537308556174763 5.8265321831702215 9.7651757817386 0 0 0
742 248 2 -1.1794 0.24238892520576982 7.796406336387278 11.388919139616688 0 0 0
705 235 1 0.5897 -2.477580771788724 9.396536724572545 12.712270398019088 0 0 0
743 248 1 0.5897 0.6188607717538064 8.531750612173692 10.905425607418383 0 0 0
693 231 1 0.5897 -2.1460822823388095 9.961835169567573 10.336901635995508 0 0 0
704 235 1 0.5897 -1.3929112766647984 8.708960856277397 11.910545614741723 0 0 0
678 226 1 0.5897 -0.06609056213263198 9.645528426327003 14.457835848348926 0 0 0
724 242 2 -1.1794 0.4195644749102785 10.657681694369565 12.962258494113003 0 0 0
750 250 1 0.5897 -3.4857142414231674 10.766590640291984 14.226778595654439 0 0 0
748 250 2 -1.1794 -2.7215786325560147 10.198338566737963 14.323718878613168 0 0 0
725 242 1 0.5897 0.7888054598123029 11.371047716718838 13.482894790765195 0 0 0
726 242 1 0.5897 -0.34840001216512384 11.041818782146667 12.539381320435343 0 0 0
84 28 1 0.5897 -3.729035861214946 6.2965632875038935 19.108498848311484 0 0 -1
569 190 1 0.5897 -1.5250347780736542 6.764057322712675 18.63767684548271 0 0 0
706 236 2 -1.1794 -3.1118621801702844 9.21269581109175 16.95456342410695 0 0 0
568 190 2 -1.1794 -1.2490362963881658 7.505661530601211 18.099086348327944 0 0 0
695 232 1 0.5897 -2.717339172007562 10.155356894735277 18.657244953849236 0 0 0
708 236 1 0.5897 -2.536559293417418 8.548043261489664 17.33324850674846 0 0 0
749 250 1 0.5897 -2.922106112177942 9.654512385928545 15.085465255463497 0 0 0
707 236 1 0.5897 -3.9863925703201275 8.978342326306668 17.265257517848397 0 0 0