LAMMPS data file via write_data, version 30 Jul 2021, timestep = 3250000

1920 atoms
2 atom types
1280 bonds
1 bond types
640 angles
1 angle types

0.04737682041943003 24.682624179578085 xlo xhi
0.014689617923798082 24.71531138207283 ylo yhi
0.032932830286457104 22.777067169716705 zlo zhi

Masses

1 1.008
2 15.999

Pair Coeffs # lj/cut/tip4p/long/omp

1 0 0
2 0.21084 3.1668

Bond Coeffs # harmonic/omp

1 450 0.9572

Angle Coeffs # harmonic/omp

1 55 104.52

Atoms # full

1 1 2 -1.1794 4.695011172824523 1.6681711846932958 4.268464542605153 0 0 0
2 1 1 0.5897 4.825453891283 2.386577856183304 4.8873304990566 0 0 0
3 1 1 0.5897 5.410692128243355 1.7603109910010302 3.639503268883466 0 0 0
4 2 2 -1.1794 3.0688444286360297 1.5420875285832625 1.965524774766107 0 0 0
5 2 1 0.5897 3.3749740251552867 1.6012281396432895 2.8705047203834906 0 0 0
6 2 1 0.5897 2.1151728487788732 1.5000353220917475 2.0369844665291237 0 0 0
9 3 1 0.5897 5.18714276931108 4.554968472365766 3.5892692518832945 0 0 0
10 4 2 -1.1794 3.283986038309841 4.63798270980152 3.6383169941289375 0 0 0
11 4 1 0.5897 2.8795652489526358 5.4160337745894465 4.022005019830491 0 0 0
12 4 1 0.5897 2.8009453392602786 4.492937077966164 2.8247703243441604 0 0 0
13 5 2 -1.1794 1.5541508344108599 3.036286730540878 5.126215474994943 0 0 0
14 5 1 0.5897 2.330110873475655 3.4045967999938465 4.703698571090256 0 0 0
15 5 1 0.5897 1.7327234249875831 2.0974732402217224 5.179290472395784 0 0 0
19 7 2 -1.1794 4.694239566302841 3.267504025274788 0.5677009153483179 0 0 0
20 7 1 0.5897 3.9545199541263596 2.895058441990457 1.0476731418341316 0 0 0
21 7 1 0.5897 5.466272871031443 2.9774803139595982 1.0536426289110072 0 0 0
22 8 2 -1.1794 1.6581316510904271 4.524744041397717 1.3887537689917504 0 0 0
23 8 1 0.5897 0.954699439538966 4.676006496700061 2.0200920970475673 0 0 0
24 8 1 0.5897 1.6154504870500757 5.276096875274275 0.797346892339846 0 0 0
27 9 1 0.5897 4.597902019376595 5.0569543235070284 0.7195885613166775 0 0 0
7 3 2 -1.1794 6.143745681928419 4.521849602490128 3.5758810091023707 0 0 0
387 129 1 0.5897 4.177802423523667 0.3048597092397882 1.1996817864789031 0 1 0
28 10 2 -1.1794 1.869058502265391 0.3577625451515952 5.135690338765017 0 0 0
16 6 2 -1.1794 0.32675456849105355 1.451111395960331 1.9959017029409118 0 0 0
25 9 2 -1.1794 4.558949555592613 6.010420342207849 0.7934276643341596 0 0 0
98 33 1 0.5897 0.3344821444227906 5.456358643038997 3.789335941797583 1 0 0
47 16 1 0.5897 6.098100137302862 0.9047092883506065 1.7133332429378647 0 0 0
867 289 1 0.5897 4.7301614544823956 0.3881207749126656 5.674893301519288 0 1 0
150 50 1 0.5897 1.3952366013619502 6.098093595245285 5.655109824674705 0 0 0
99 33 1 0.5897 0.38715149682831934 3.9548433836405783 3.9741724227608253 1 0 0
18 6 1 0.5897 0.09353714263434298 2.270728491052001 1.5600770018770584 0 0 0
579 193 1 0.5897 0.10386463068532006 5.510715154591633 9.75902789675316 1 0 0
865 289 2 -1.1794 4.709766962761596 0.06976635846253743 6.577335684573415 0 1 0
496 166 2 -1.1794 0.2841318252889168 1.8406234624336824 7.847508532720108 0 0 0
481 161 2 -1.1794 4.52779444711954 1.5195007755953056 10.039240826125074 0 0 0
486 162 1 0.5897 3.3938945326939143 1.2355144113833072 7.33668664810888 0 0 0
490 164 2 -1.1794 3.177229624663296 4.878493068026897 9.302175202227778 0 0 0
528 176 1 0.5897 5.9633256103345875 2.5400839988362702 7.408464190306506 0 0 0
629 210 1 0.5897 2.2596798664671005 6.120996653437426 10.185811450648917 0 0 0
485 162 1 0.5897 3.4026649087101144 1.9207095696497116 8.68655266563461 0 0 0
504 168 1 0.5897 1.5001171657338233 4.11661101300375 6.524500621323596 0 0 0
502 168 2 -1.1794 1.5247447599104962 4.888071690905467 7.090493005476897 0 0 0
498 166 1 0.5897 1.2372073414007436 1.7799091678336176 7.913289889134009 0 0 0
487 163 2 -1.1794 5.945393924649653 4.824285100514799 9.135277322144487 0 0 0
493 165 2 -1.1794 1.472612727997381 3.039034003929472 10.53837044061227 0 0 0
508 170 2 -1.1794 1.4740452253503205 0.3454623313551253 10.656773390455383 0 0 0
527 176 1 0.5897 5.9411373440958375 1.0296265127800626 7.505976707270078 0 0 0
484 162 2 -1.1794 2.9978357358465364 1.9604938294764933 7.820098426858363 0 0 0
483 161 1 0.5897 4.6258066016233474 2.25291230992492 10.64638157786708 0 0 0
578 193 1 0.5897 0.31956672181264584 4.018880094962907 9.619753620521154 1 0 0
482 161 1 0.5897 5.258754211056813 1.614225775770087 9.428492615420911 0 0 0
491 164 1 0.5897 2.7276347678159856 4.93821216319907 8.45925284138221 0 0 0
489 163 1 0.5897 4.995633412109382 4.708184603347784 9.106327720708055 0 0 0
494 165 1 0.5897 1.5228386360965191 2.088649976030116 10.639934328077375 0 0 0
492 164 1 0.5897 2.6857254711357945 4.2176878194706795 9.789964076321443 0 0 0
500 167 1 0.5897 4.105586041357207 3.0567173458843593 6.823348174502906 0 0 0
499 167 2 -1.1794 4.830427195849539 3.412429863527704 6.309201208862384 0 0 0
503 168 1 0.5897 0.7873227258920154 4.770052664855299 7.689297285957043 0 0 0
501 167 1 0.5897 4.682286724417678 4.358011760511085 6.307911000087869 0 0 0
961 321 2 -1.1794 4.627252893547624 1.7280634617010113 15.709650470847357 0 0 0
962 321 1 0.5897 5.360789063663115 1.6621481680083723 15.09820272273705 0 0 0
963 321 1 0.5897 4.699411674859616 0.9456553357112824 16.25622166809608 0 0 0
964 322 2 -1.1794 2.880461631685106 1.6178984611534935 13.453376033079765 0 0 0
965 322 1 0.5897 3.2441861566071295 1.6915713322502257 14.335693848312633 0 0 0
966 322 1 0.5897 1.944155245343506 1.4738401902412641 13.59096723826041 0 0 0
970 324 2 -1.1794 3.252771086619636 4.789861489311767 14.98159177595492 0 0 0
971 324 1 0.5897 4.196821799385174 4.736978572386802 15.131040971480711 0 0 0
972 324 1 0.5897 2.8978245921096497 4.011476310387543 15.41084472988604 0 0 0
973 325 2 -1.1794 1.6071405119976443 2.892932299013188 16.379176759688818 0 0 0
975 325 1 0.5897 0.8906934029903362 3.3374939268803163 15.926045994882504 0 0 0
979 327 2 -1.1794 4.6154870095171665 3.3023614810354096 12.037146473851946 0 0 0
980 327 1 0.5897 3.8201211595973636 2.9080945514776007 12.395247384203882 0 0 0
981 327 1 0.5897 5.328519603717093 2.8891792816324564 12.524103298687464 0 0 0
982 328 2 -1.1794 1.3973487526353396 4.563760585215844 12.830962122081 0 0 0
983 328 1 0.5897 1.4545942684838058 5.356973256099336 12.298379172829774 0 0 0
984 328 1 0.5897 2.1191649387200426 4.641009779011629 13.454899179363961 0 0 0
987 329 1 0.5897 4.665755596099167 5.095332952879475 12.031545908370576 0 0 0
990 330 1 0.5897 1.5919782687533512 1.053523838607038 16.40275124723484 0 0 0
967 323 2 -1.1794 5.970779021866076 4.645374433733967 14.979153734294984 0 0 0
1109 370 1 0.5897 0.7273351325012898 5.965314006223028 16.02172786499407 0 0 0
1110 370 1 0.5897 2.2381625346891667 6.057463666279873 15.987996098206052 0 0 0
1008 336 1 0.5897 6.00989485699851 0.9400488995376158 13.079346124398432 0 0 0
988 330 2 -1.1794 1.4287943631544169 0.1207905424597238 16.263266797229257 0 0 0
985 329 2 -1.1794 4.750421107064234 6.046510000118329 12.096066718873644 0 0 0
976 326 2 -1.1794 0.15420599992311693 1.5536543893691936 13.666928462826212 0 0 0
1058 353 1 0.5897 0.1569746474640823 4.703302013239487 14.155994300788333 1 0 0
1346 449 1 0.5897 4.001817911759313 0.3944467851006195 12.75429940045971 0 1 0
495 165 1 0.5897 1.3706046022013445 3.3706301537075736 11.430450313990862 0 0 0
1347 449 1 0.5897 4.72785159017797 0.290704558294741 11.42991741415035 0 1 0
1538 513 1 0.5897 0.4565746760362268 3.9071291810821664 21.15546844134895 1 0 0
1460 487 1 0.5897 4.714308246003761 2.8716401545492567 17.130126836516467 0 0 0
386 129 1 0.5897 4.880983116751738 0.28260035478650225 22.603329567280504 0 1 -1
1468 490 2 -1.1794 1.5807650581902477 0.16235925538448237 21.81642003878008 0 0 0
974 325 1 0.5897 1.7034411410645462 3.370889989033042 17.2028505736031 0 0 0
1454 485 1 0.5897 2.368458837221462 3.3136916265020906 21.410698672784008 0 0 0
1539 513 1 0.5897 0.3085342394065574 5.4115414173561955 21.075999928478517 1 0 0
1488 496 1 0.5897 6.0105900881585805 0.8407668268136961 18.452940109054886 0 0 0
1469 490 1 0.5897 1.6718135611689098 1.1127897398744147 21.88320949794398 0 0 0
1442 481 1 0.5897 4.073240401441942 1.4346224432671617 20.662516586411122 0 0 0
1441 481 2 -1.1794 4.839228940320233 1.411077563306312 21.236105173113465 0 0 0
1455 485 1 0.5897 1.6725502231641869 3.3762590937817674 22.753702837181187 0 0 0
1466 489 1 0.5897 4.56566356224885 5.039365847730865 17.773544217888528 0 0 0
1465 489 2 -1.1794 4.460811891495581 5.98982617889989 17.814820094200833 0 0 0
1452 484 1 0.5897 3.080315625046814 4.741947627455868 19.83219449200425 0 0 0
1443 481 1 0.5897 4.769499329037986 2.2075007383750345 21.76236665586633 0 0 0
1456 486 2 -1.1794 0.3313082691596129 1.4084293427468448 19.187262593717648 0 0 0
1826 609 1 0.5897 4.139571658601019 0.11517299888442986 18.324748047714927 0 1 0
1450 484 2 -1.1794 3.4153582603917707 4.736265985681153 20.72880901498153 0 0 0
1453 485 2 -1.1794 1.6643656458712834 2.909731965860409 21.9179765631754 0 0 0
1444 482 2 -1.1794 3.0521458117380744 1.4419980983150724 19.17289155679802 0 0 0
1590 530 1 0.5897 2.3989996976493306 5.970828510928281 21.64578981505229 0 0 0
1446 482 1 0.5897 3.3131394468045348 2.286383255659609 18.805467720651855 0 0 0
1461 487 1 0.5897 5.414766258707803 2.837251678300943 18.47178330102762 0 0 0
1445 482 1 0.5897 2.0956503353087683 1.4745129440740297 19.19349974095028 0 0 0
1459 487 2 -1.1794 4.699517665118472 3.2662308905504096 18.002044569511675 0 0 0
1464 488 1 0.5897 1.0178695471782082 4.566297068995463 19.124238464210983 0 0 0
1451 484 1 0.5897 4.3644883477318555 4.660539471415006 20.629922149462182 0 0 0
1487 496 1 0.5897 6.027674788070355 1.365333204312904 19.872894155480715 0 0 0
1462 488 2 -1.1794 1.742910981610754 4.5387765998593785 18.499863339763266 0 0 0
1463 488 1 0.5897 1.6290496289877807 5.324407945239271 17.96514496699932 0 0 0
1447 483 2 -1.1794 6.116831462215046 4.634144091885283 20.633496381225633 0 0 0
121 41 2 -1.1794 4.426910009803717 7.804062018256673 4.217777134066861 0 0 0
122 41 1 0.5897 3.748193022181435 7.783113304776253 3.543108348419154 0 0 0
123 41 1 0.5897 5.249707288230103 7.74118340859211 3.732627715430287 0 0 0
124 42 2 -1.1794 2.8322920313547693 7.913425734112419 1.927478630108355 0 0 0
125 42 1 0.5897 3.1396871875766945 7.096334254405759 1.5350688798367453 0 0 0
126 42 1 0.5897 3.493093541593189 8.560934341139856 1.6819413038972302 0 0 0
129 43 1 0.5897 5.178027720497505 10.861341703387307 3.532011655873645 0 0 0
130 44 2 -1.1794 3.3118600221976107 10.862658336614546 3.6577247566367816 0 0 0
131 44 1 0.5897 2.8959894958732417 11.644912471957534 4.020034595067125 0 0 0
132 44 1 0.5897 2.8262867077182126 10.132917130406643 4.04224741366232 0 0 0
133 45 2 -1.1794 1.4958868121944828 9.28838318258445 5.022292554282242 0 0 0
135 45 1 0.5897 0.8671018104231518 9.78198356100135 4.495779913553138 0 0 0
137 46 1 0.5897 1.021462968814438 8.000163125769223 2.1570965085510094 0 0 0
139 47 2 -1.1794 4.7851163881516126 9.430498069955485 0.8470040755904513 0 0 0
140 47 1 0.5897 4.729962078733359 10.373072228502004 0.6902153859843916 0 0 0
142 48 2 -1.1794 1.6032949363969475 10.774416929217177 1.2211047699426747 0 0 0
143 48 1 0.5897 2.3819609964669546 10.845923936836067 1.7732540695823398 0 0 0
144 48 1 0.5897 1.6605470957413224 11.522983754578398 0.6274037760009599 0 0 0
149 50 1 0.5897 1.4270186478350542 7.457671970874544 4.990226380573585 0 0 0
621 207 1 0.5897 4.5032000676272705 9.13702082366646 5.573656518905697 0 0 0
148 50 2 -1.1794 1.510776101349746 6.5224016629772 4.804949126403088 0 0 0
218 73 1 0.5897 0.3341669972039524 11.031368599225853 2.5528192697769434 1 0 0
127 43 2 -1.1794 6.129509052319648 10.76751153730834 3.579344639806118 0 0 0
26 9 1 0.5897 5.311471900479914 6.239810670744295 1.3387512698731687 0 0 0
168 56 1 0.5897 6.042763021033221 8.377997943971959 1.8513054429537372 0 0 0
136 46 2 -1.1794 0.0671715545077872 8.039637395997623 2.2213868876338814 0 0 0
507 169 1 0.5897 4.3984079245088985 6.749620487693783 5.5187527596756665 0 0 0
145 49 2 -1.1794 4.601790277071086 12.238527832757532 0.847499372740909 0 0 0
750 250 1 0.5897 1.8025891219503636 12.143253898074267 11.399196946132724 0 0 0
134 45 1 0.5897 1.5612540677734907 9.779663087862914 5.841147484661234 0 0 0
604 202 2 -1.1794 2.9512416414721288 7.8203905649542325 7.951058320258257 0 0 0
622 208 2 -1.1794 1.4894689881148861 10.860090093628235 7.117033024478768 0 0 0
1101 367 1 0.5897 4.512012581478349 9.016091473299683 11.271683793137186 0 0 0
625 209 2 -1.1794 4.517598649451375 12.246374926684583 6.572194428023685 0 0 0
601 201 2 -1.1794 4.7970556813826475 7.877552222404768 9.924777713509194 0 0 0
606 202 1 0.5897 1.99528328111585 7.857143752793933 7.917040342988855 0 0 0
602 201 1 0.5897 4.744486035534549 7.107752503837927 10.491126186287541 0 0 0
698 233 1 0.5897 0.28918773295400124 11.656991065138465 9.870135059277084 1 0 0
623 208 1 0.5897 2.2508422425171064 10.838974466101254 7.696827773734797 0 0 0
624 208 1 0.5897 1.6739992337624117 11.572052220173875 6.504512690987419 0 0 0
699 233 1 0.5897 0.2665687687641858 10.967762429481192 8.522484164607823 1 0 0
615 205 1 0.5897 0.8816298623334692 9.599579892346489 10.305203054204725 0 0 0
647 216 1 0.5897 5.932520613888839 7.727282651750177 8.51113707273896 0 0 0
605 202 1 0.5897 3.238899491626515 8.573864603221969 7.435639710973796 0 0 0
603 201 1 0.5897 4.08036254156484 7.765408269064742 9.300231248821992 0 0 0
614 205 1 0.5897 2.36003670671104 9.610262581315196 9.97899303907703 0 0 0
630 210 1 0.5897 1.5439680560367295 7.384414942482029 10.613831229136231 0 0 0
616 206 2 -1.1794 0.2550435143689126 7.914173200994216 7.8591004953428785 0 0 0
611 204 1 0.5897 4.283468021220176 10.763291205525242 9.150383962996196 0 0 0
613 205 2 -1.1794 1.7089101962331343 9.17214953438664 10.527024590294326 0 0 0
620 207 1 0.5897 5.329285413973098 9.082550455272957 6.841141175860539 0 0 0
628 210 2 -1.1794 1.5512757925199934 6.436623509269603 10.746893509154452 0 0 0
619 207 2 -1.1794 4.572267089520013 9.517846563653702 6.449078752980239 0 0 0
610 204 2 -1.1794 3.3305839104450103 10.785643481098829 9.061635716240747 0 0 0
648 216 1 0.5897 5.905746763076315 7.078846218168381 7.14346523443219 0 0 0
626 209 1 0.5897 4.614504226261213 11.29681099259387 6.501423066255647 0 0 0
612 204 1 0.5897 3.0669779580067322 11.591322494751331 9.506054139238078 0 0 0
607 203 2 -1.1794 6.013839263219666 10.757717562230715 9.190681842359567 0 0 0
506 169 1 0.5897 3.790174842790207 6.607965623058455 6.897819386372094 0 0 0
505 169 2 -1.1794 4.417692776546294 6.199282588464138 6.301633704391645 0 0 0
1081 361 2 -1.1794 4.653065002555725 7.823868809332045 15.6890982980631 0 0 0
1082 361 1 0.5897 4.640281115414238 8.557662892097868 16.30350504110971 0 0 0
1083 361 1 0.5897 4.641240148026505 7.045019210240038 16.24529992703713 0 0 0
1084 362 2 -1.1794 2.9459358015338957 7.6995036010571685 13.46236969545844 0 0 0
1085 362 1 0.5897 3.437820937661867 7.608181755833753 14.27842179373682 0 0 0
1086 362 1 0.5897 3.402895031360685 8.390444721795063 12.982837859312946 0 0 0
1089 363 1 0.5897 5.109203451957218 10.746185810934202 15.136279502625587 0 0 0
1090 364 2 -1.1794 3.330383231619736 10.787269038151468 15.199808928498342 0 0 0
1091 364 1 0.5897 2.8674165086211483 11.540260337818921 15.566985072831573 0 0 0
1092 364 1 0.5897 2.911061022623023 10.027573033226185 15.603755618657427 0 0 0
1093 365 2 -1.1794 1.584827607021452 9.138286516859734 16.46830747733589 0 0 0
1094 365 1 0.5897 1.4582843142323858 8.189573665686087 16.467276883355254 0 0 0
1095 365 1 0.5897 0.8616230155351268 9.477383303991413 15.940804395387582 0 0 0
1097 366 1 0.5897 1.201594349114653 7.872615847669268 13.410398759206272 0 0 0
1099 367 2 -1.1794 4.499435816518101 9.499665245118434 12.097606799086721 0 0 0
1100 367 1 0.5897 5.29526152483119 9.221254507335942 12.550867562934613 0 0 0
1102 368 2 -1.1794 1.6768067490845806 10.748560750840474 12.811065466951527 0 0 0
1103 368 1 0.5897 1.8268247754540605 10.075270842598169 12.147512505211552 0 0 0
1104 368 1 0.5897 2.419770931050188 10.665999708328993 13.408960737338258 0 0 0
1107 369 1 0.5897 4.563199814964163 11.30705238805546 12.130619676662889 0 0 0
1087 363 2 -1.1794 6.060738763357762 10.650647330108633 15.093656585614548 0 0 0
1179 393 1 0.5897 0.4641203012858818 10.747547436809567 14.110231964982333 1 0 0
1127 376 1 0.5897 5.679335180362147 7.914267848948498 14.283954758528864 0 0 0
1178 393 1 0.5897 0.2820419725003486 11.521046415411439 15.39873999281668 1 0 0
1105 369 2 -1.1794 4.603649612231727 12.245671170305476 12.313454320968038 0 0 0
1096 366 2 -1.1794 0.25558651348735917 7.994341777074586 13.329090021841488 0 0 0
1128 376 1 0.5897 5.915035868015085 7.115531106111022 13.019770928999778 0 0 0
1108 370 2 -1.1794 1.469166849211574 6.39577717601612 16.446768874707303 0 0 0
986 329 1 0.5897 3.99866743268691 6.319179822676062 12.622186403720868 0 0 0
1230 410 1 0.5897 1.61380271529032 12.078811501670017 17.095895872378563 0 0 0
1585 529 2 -1.1794 4.56799540256063 12.192046390554419 17.843555637156463 0 0 0
141 47 1 0.5897 4.707156326535289 9.03768061195909 22.72178255658026 0 0 -1
1567 523 2 -1.1794 5.992366754662763 10.721214459208603 20.544731478472436 0 0 0
1608 536 1 0.5897 6.034577471975445 7.631798656185885 20.051541830335374 0 0 0
1584 528 1 0.5897 1.55166270479411 10.211711585463823 17.950733049164775 0 0 0
1588 530 2 -1.1794 1.6485686907343928 6.37736634100671 22.079211757610246 0 0 0
1562 521 1 0.5897 4.718710564988222 7.008497226291124 21.922550515170997 0 0 0
1709 570 1 0.5897 0.8167716722011934 12.08989773356953 21.478916963395427 0 0 0
1467 489 1 0.5897 5.247969553673738 6.29879850715132 18.263384338688574 0 0 0
1583 528 1 0.5897 0.8832256938311991 10.917688422066828 19.111154617597663 0 0 0
1564 522 2 -1.1794 3.0167652690922258 7.769535238087924 19.31684916489791 0 0 0
1581 527 1 0.5897 5.415144315475832 8.932082321451274 18.12408916632122 0 0 0
1587 529 1 0.5897 4.6640382007335015 11.240372671678774 17.877662117128672 0 0 0
1579 527 2 -1.1794 4.694950844484186 9.474172801275492 17.80205151749466 0 0 0
1589 530 1 0.5897 1.7494330632549113 7.3132347276674805 21.905853661401302 0 0 0
1582 528 2 -1.1794 1.6385137298685397 10.972041311312179 18.52559436395046 0 0 0
1561 521 2 -1.1794 4.825938479339517 7.781485697930984 21.368386530239817 0 0 0
1576 526 2 -1.1794 0.30131012210971275 7.552768424647425 19.197193364063622 0 0 0
1565 522 1 0.5897 2.0655399194471267 7.7195334670061655 19.221809692307993 0 0 0
1580 527 1 0.5897 3.9143680344472296 9.108288514806437 18.21811094935571 0 0 0
1570 524 2 -1.1794 3.351891495855918 10.852707906325632 20.66428333749665 0 0 0
1572 524 1 0.5897 4.302656659399822 10.819602431498055 20.55792513311828 0 0 0
1710 570 1 0.5897 2.3282388241818164 12.157698981719973 21.534593489223866 0 0 0
1566 522 1 0.5897 3.352303618986 7.087699726073522 18.734905248005866 0 0 0
1563 521 1 0.5897 4.070981083736749 7.761691722433674 20.78021887550787 0 0 0
1573 525 2 -1.1794 1.5575237162631357 9.1261142413433 21.734185821411167 0 0 0
1658 553 1 0.5897 0.11932166725344949 10.188377533732414 21.02519678984931 1 0 0
1571 524 1 0.5897 3.01446936215323 10.959737819269112 19.774959681843796 0 0 0
1575 525 1 0.5897 2.1904722571274156 9.59794530760847 21.192899418572395 0 0 0
1574 525 1 0.5897 1.608756087795187 9.552088086972065 22.58980254409353 0 0 0
241 81 2 -1.1794 4.658923100621593 14.087173471166222 4.46297961707714 0 0 0
242 81 1 0.5897 4.500997595179394 13.369002108019304 5.075687442190782 0 0 0
243 81 1 0.5897 3.992812344734239 13.974874444546307 3.784778232091451 0 0 0
244 82 2 -1.1794 2.8648997348448644 13.880196541175895 2.28357749042004 0 0 0
245 82 1 0.5897 1.914041826968243 13.980873595791223 2.237800173048616 0 0 0
246 82 1 0.5897 3.210212684115797 14.669984563606215 1.8674957148042381 0 0 0
250 84 2 -1.1794 3.2528127947281105 17.196191065906127 3.722083528544863 0 0 0
251 84 1 0.5897 2.9136754195775145 17.105819397452414 2.8315667515207346 0 0 0
252 84 1 0.5897 4.202385072963618 17.122479455710966 3.6259515005791885 0 0 0
253 85 2 -1.1794 1.5023936635260544 15.388691832610057 4.918337291658693 0 0 0
254 85 1 0.5897 0.7395549758185371 15.805033019742563 4.51707274727501 0 0 0
255 85 1 0.5897 2.2524868601068713 15.853464697784247 4.54737417812793 0 0 0
259 87 2 -1.1794 4.577615403642762 15.662634918577538 1.0084763394462142 0 0 0
260 87 1 0.5897 4.65843223235731 16.605253730944767 0.8635320478888299 0 0 0
262 88 2 -1.1794 1.483823306265255 17.087992258462734 1.4793665965014635 0 0 0
263 88 1 0.5897 1.4726762059092862 16.353521070605083 0.8657338998758587 0 0 0
264 88 1 0.5897 1.5625303135623179 17.863496159032202 0.923934708554534 0 0 0
269 90 1 0.5897 1.6611181892042637 13.57975273931378 4.916878522440972 0 0 0
146 49 1 0.5897 5.409846327581189 12.614116705173927 1.1971724380034916 0 0 0
288 96 1 0.5897 5.780255291396562 14.660876725271168 1.7961747435006676 0 0 0
268 90 2 -1.1794 1.6507012066642281 12.623317280824127 4.951348499952517 0 0 0
338 113 1 0.5897 0.11548542934297742 17.06778044912528 2.775123969785665 1 0 0
147 49 1 0.5897 3.902897734512023 12.686643845450428 1.3239446342667682 0 0 0
247 83 2 -1.1794 6.129330278751607 16.91046594716842 3.6959911224333566 0 0 0
265 89 2 -1.1794 4.614941157164858 18.369494308893003 0.8169731273072736 0 0 0
287 96 1 0.5897 6.002081300517786 13.939757063764183 3.1086133059083934 0 0 0
256 86 2 -1.1794 0.144049928441387 14.038716912205755 2.021337193534549 0 0 0
339 113 1 0.5897 0.14113028004618364 17.793610100103535 4.103361030812325 1 0 0
270 90 1 0.5897 0.9577672310722137 12.368766830627523 4.341980063997769 0 0 0
389 130 1 0.5897 2.016354671843696 18.421967459810503 4.519337820216616 0 0 0
261 87 1 0.5897 4.59657949856319 15.28233839823164 0.13030960750519682 0 0 0
740 247 1 0.5897 4.7779288468707355 15.402859616835467 5.786359903608947 0 0 0
627 209 1 0.5897 5.336719509114065 12.542206846358637 6.969469419529437 0 0 0
768 256 1 0.5897 6.097410686556868 14.598141076135956 7.529694774610241 0 0 0
725 242 1 0.5897 3.377686811176775 14.833904829964384 7.6027090018489725 0 0 0
722 241 1 0.5897 3.9224177182577025 13.951668651513863 9.49942083607488 0 0 0
727 243 2 -1.1794 6.1146765704087676 16.873914020399333 9.197602281746432 0 0 0
741 247 1 0.5897 4.761256993681367 16.672500986084557 6.610554459323539 0 0 0
726 242 1 0.5897 3.321456022089496 13.325357284398041 7.490440687081999 0 0 0
742 248 2 -1.1794 1.6479062969039047 17.07898891058874 7.0751013840560875 0 0 0
1221 407 1 0.5897 4.735457478824046 15.20575958468334 11.341278781458334 0 0 0
818 273 1 0.5897 0.32472407023974514 16.849534840670742 8.473104175105382 1 0 0
724 242 2 -1.1794 2.9358962993394355 14.06419266009298 7.9611932053962295 0 0 0
743 248 1 0.5897 1.474005123389899 17.83753159677206 6.5178895319816315 0 0 0
721 241 2 -1.1794 4.663671116437533 13.840138043001298 10.094730826875987 0 0 0
744 248 1 0.5897 1.645085618298905 16.334102694860952 6.474062689776694 0 0 0
732 244 1 0.5897 2.8667064336127983 16.39884819532987 9.874876193513494 0 0 0
728 243 1 0.5897 5.1593131937840555 16.91274910162153 9.243848011889318 0 0 0
730 244 2 -1.1794 3.282221211487705 17.128830633395125 9.415943819984276 0 0 0
737 246 1 0.5897 1.1721469042058947 14.04537654865945 7.761439204814463 0 0 0
869 290 1 0.5897 0.7040904778905412 18.134510121334493 10.292697811462725 0 0 0
731 244 1 0.5897 2.8829230924950346 17.123836751670694 8.546030546231204 0 0 0
723 241 1 0.5897 5.418658882740301 13.721201715210837 9.518413053747434 0 0 0
733 245 2 -1.1794 1.797774564631622 15.312732832528622 10.763235873220161 0 0 0
870 290 1 0.5897 2.2046008560517 18.32160218362184 10.217299722049642 0 0 0
749 250 1 0.5897 1.7143366934075204 13.516596021114557 10.768579425848696 0 0 0
745 249 2 -1.1794 4.670255082479919 18.44742359806839 6.523827033175692 0 0 0
748 250 2 -1.1794 1.7431936093149294 12.584747808918216 10.552017734349219 0 0 0
739 247 2 -1.1794 4.778824201124484 15.718839642087278 6.689866194349129 0 0 0
735 245 1 0.5897 1.061358928303721 15.66006537362307 10.259921744143519 0 0 0
736 246 2 -1.1794 0.2314832594954174 13.885385448206366 7.684482431636502 0 0 0
1201 401 2 -1.1794 4.453903472029641 14.016946462532541 15.831462260187635 0 0 0
1202 401 1 0.5897 5.197699244769426 13.913230463518039 15.237913946716757 0 0 0
1203 401 1 0.5897 4.547948179220134 13.302295645509039 16.46118214956607 0 0 0
1204 402 2 -1.1794 2.8614723945108866 14.096617460202388 13.548693759208946 0 0 0
1205 402 1 0.5897 3.208686843546925 14.121825488224257 14.440327209263138 0 0 0
1206 402 1 0.5897 3.2993279520775647 13.349077663828234 13.141737021719097 0 0 0
1210 404 2 -1.1794 3.310593295919126 17.01826351916018 15.025556106279137 0 0 0
1211 404 1 0.5897 2.967708112562184 17.781073378006674 15.49104930738369 0 0 0
1212 404 1 0.5897 4.2596861254994876 17.143089235665656 15.026479217386344 0 0 0
1213 405 2 -1.1794 1.6410103134975074 15.368373503123404 16.385321560572052 0 0 0
1214 405 1 0.5897 0.9764876242753631 15.833564913958577 15.877138165693456 0 0 0
1215 405 1 0.5897 2.464872211785021 15.79626959167854 16.151970076610354 0 0 0
1218 406 1 0.5897 1.1198873845854862 14.100505867480463 13.504301800071175 0 0 0
1219 407 2 -1.1794 4.6194245032148284 15.679913137792003 12.164608602027622 0 0 0
1220 407 1 0.5897 3.972219887502868 15.166504041529658 12.648113139711214 0 0 0
1222 408 2 -1.1794 1.5536135270672162 16.973164417308986 12.876798332740963 0 0 0
1223 408 1 0.5897 1.6195164186541207 17.760195558170267 12.336110575648648 0 0 0
1224 408 1 0.5897 2.2948800381875407 17.033265417631057 13.479461501005858 0 0 0
1227 409 1 0.5897 4.7311092892638875 17.54441213339856 12.121881662082878 0 0 0
1229 410 1 0.5897 1.5758736498781556 13.469880872987288 16.500068796242893 0 0 0
1247 416 1 0.5897 5.847405156560082 14.744021944973897 13.271634750672451 0 0 0
1216 406 2 -1.1794 0.17914647161295164 13.92341149091506 13.503279676187827 0 0 0
1248 416 1 0.5897 5.89311029859114 13.231488692613915 13.231140877832795 0 0 0
1225 409 2 -1.1794 4.582466354560773 18.487632653497883 12.187564745271343 0 0 0
1298 433 1 0.5897 0.23745428286577283 17.111532357317152 14.218180498609978 1 0 0
1228 410 2 -1.1794 1.5677097965112703 12.543323458413505 16.260277852619133 0 0 0
1350 450 1 0.5897 1.09711137496631 18.37747398147662 15.993513702247794 0 0 0
734 245 1 0.5897 1.803273208931527 15.82998929910778 11.568570119575579 0 0 0
1207 403 2 -1.1794 6.021399013383436 17.037013493552593 15.0997931169549 0 0 0
1106 369 1 0.5897 4.700486517742428 12.653765835627249 11.45308045593607 0 0 0
1700 567 1 0.5897 4.614453561600044 15.260454248662574 17.12432784144398 0 0 0
1702 568 2 -1.1794 1.5598680380000973 17.013899863851037 18.616456547162265 0 0 0
1691 564 1 0.5897 2.728642541176223 16.318070278442114 21.275806516812793 0 0 0
1703 568 1 0.5897 1.520490789105291 16.330840421015168 17.947126491175688 0 0 0
1695 565 1 0.5897 1.4975400046601428 14.311668197143216 22.066623300125848 0 0 0
1705 569 2 -1.1794 4.778430637947296 18.441783703057773 17.835478032708593 0 0 0
1686 562 1 0.5897 3.3594652969954435 13.928393774567134 20.133379167646673 0 0 0
1701 567 1 0.5897 3.959030234457548 15.18774142213976 18.48703957787805 0 0 0
1728 576 1 0.5897 5.873082164200833 14.616491539744116 18.72051556894229 0 0 0
1683 561 1 0.5897 4.56741361882929 13.295637100945857 22.07377304828139 0 0 0
1693 565 2 -1.1794 1.5561797490442353 15.26321802667139 22.151369855650913 0 0 0
1684 562 2 -1.1794 2.9633334250655237 13.939288183517501 19.26207349294983 0 0 0
1690 564 2 -1.1794 3.19436029974111 16.964753726253058 20.745639723784542 0 0 0
1697 566 1 0.5897 1.1796518940462268 13.950825670973474 19.188131555134234 0 0 0
1704 568 1 0.5897 1.7068731764233582 17.82243044922236 18.125772778636126 0 0 0
1692 564 1 0.5897 2.7079605944126475 16.994749647087723 19.92178020565877 0 0 0
1694 565 1 0.5897 0.7734864755221239 15.592174855524515 21.70925285541086 0 0 0
1699 567 2 -1.1794 4.61619520947699 15.672911776592505 17.988060511118384 0 0 0
1779 593 1 0.5897 0.129418934394026 17.70646493420749 21.172795304321376 1 0 0
1830 610 1 0.5897 2.197392002234699 18.354047114689656 21.53037829952072 0 0 0
1586 529 1 0.5897 5.315071433636115 12.526534647960837 18.339817794861055 0 0 0
1696 566 2 -1.1794 0.24444955023575524 13.79448837010615 19.056572664419882 0 0 0
1778 593 1 0.5897 0.26369713059749167 16.867524230314437 19.919867653567962 1 0 0
1689 563 1 0.5897 5.011339110358389 17.032696528358834 20.683128234357753 0 0 0
1685 562 1 0.5897 3.3059704318720318 13.155366055400584 18.832895819145854 0 0 0
1681 561 2 -1.1794 4.456538063882644 14.031621826576982 21.471985363192502 0 0 0
1708 570 2 -1.1794 1.5385726029015006 12.562054001239426 21.89404799080382 0 0 0
1707 569 1 0.5897 4.602711486005105 17.506048006620617 17.737508585912636 0 0 0
1687 563 2 -1.1794 5.964355887809379 17.0983206126782 20.744893761756217 0 0 0
1682 561 1 0.5897 5.166900498015134 13.932414890024994 20.838084549329267 0 0 0
361 121 2 -1.1794 4.8253054907604485 20.08270043737521 4.341018426071909 0 0 0
362 121 1 0.5897 4.075165552435366 19.923004393720774 3.7682373840312646 0 0 0
363 121 1 0.5897 4.758675673337548 19.408619834634834 5.017257904879551 0 0 0
364 122 2 -1.1794 3.006901982393838 20.095289890145786 2.272041168909697 0 0 0
365 122 1 0.5897 3.382883664691019 20.8331039864876 1.7920270293473592 0 0 0
366 122 1 0.5897 2.065787036631161 20.15677175837815 2.108088659438295 0 0 0
370 124 2 -1.1794 3.4155046252902035 23.428138578660345 3.3988409444822305 0 0 0
371 124 1 0.5897 4.361550826895284 23.29615668793545 3.4615728544403668 0 0 0
372 124 1 0.5897 3.0382032890794446 22.69763972963139 3.8889014580121604 0 0 0
373 125 2 -1.1794 1.7556807478715466 21.60574017261839 4.95508566026288 0 0 0
375 125 1 0.5897 1.0042070376865333 21.937648609751108 4.463758444938064 0 0 0
379 127 2 -1.1794 4.600217332595425 21.778436631764208 0.7841538137178313 0 0 0