LAMMPS (30 Jul 2021)
  using 32 OpenMP thread(s) per MPI task
package omp 0
using multi-threaded neighbor list subroutines
echo both

include		in.partitions
variable        pid world 0
include		in.temp
variable	temperature equal 270.0
variable	tempDamp equal 100.0
include		in.pressure
variable        pressure equal 2000
variable        pressureDamp equal 1000.0 # This is 1 ps
include		in.seed
variable        seed world 745823

units		real
atom_style	full
include		in.box
read_data       water.data
Reading data file ...
  orthogonal box = (0.0000000 0.0000000 0.0000000) to (18.207572 23.629178 22.213196)
  1 by 1 by 1 MPI processor grid
  reading atoms ...
  864 atoms
  reading velocities ...
  864 velocities
  scanning bonds ...
  2 = max bonds/atom
  scanning angles ...
  1 = max angles/atom
  reading bonds ...
  576 bonds
  reading angles ...
  288 angles
Finding 1-2 1-3 1-4 neighbors ...
  special bond factors lj:    0        0        0       
  special bond factors coul:  0        0        0       
     2 = max # of 1-2 neighbors
     1 = max # of 1-3 neighbors
     1 = max # of 1-4 neighbors
     2 = max # of special neighbors
  special bonds CPU = 0.000 seconds
  read_data CPU = 0.114 seconds
include 	in.setup
variable	out_freq equal 500
variable	out_freq2 equal 500

timestep	2.0

neigh_modify    delay 7 every 1

include		in.tip4p
# This is TIP4P/Ice

# create groups ###
group ox type 2
288 atoms in group ox
group hy type 1
576 atoms in group hy

# set charges - beside manually ###
set group ox charge -1.1794
Setting atom values ...
  288 settings made for charge
set group hy charge 0.5897
Setting atom values ...
  576 settings made for charge

# ### TIP3P Potential Parameters ###
pair_style lj/cut/tip4p/long 2 1 1 1 0.1577 8.5
pair_coeff 1 1*2 0.000 0.000
pair_coeff 2 2 0.21084 3.1668
bond_style  harmonic
bond_coeff  1 450 0.9572
angle_style harmonic
angle_coeff 1 55 104.52
kspace_style pppm/tip4p 1.0e-5
pair_modify tail yes

thermo          ${out_freq}
thermo          500
thermo_style 	custom step temp pe etotal epair emol press lx ly lz vol pxx pyy pzz pxy pxz pyz
thermo_modify   flush yes
restart 	${out_freq} restart.lmp.${pid} restart2.lmp.${pid}
restart 	500 restart.lmp.${pid} restart2.lmp.${pid}
restart 	500 restart.lmp.0 restart2.lmp.${pid}
restart 	500 restart.lmp.0 restart2.lmp.0


include         in.dump
dump            myDump all atom ${out_freq2} dump.water.${pid}
dump            myDump all atom 500 dump.water.${pid}
dump            myDump all atom 500 dump.water.0
dump            myDump2 all dcd ${out_freq2} dump.dcd
dump            myDump2 all dcd 500 dump.dcd
dump_modify     myDump append yes
dump_modify     myDump2 append yes


timer           timeout 23:50:00 every 1000
New timer settings: style=normal  mode=nosync  timeout=23:50:00

fix 		1 all shake 1e-6 200 0 b 1 a 1
       0 = # of size 2 clusters
       0 = # of size 3 clusters
       0 = # of size 4 clusters
     288 = # of frozen angles
  find clusters CPU = 0.000 seconds
fix             2 all nph aniso ${pressure} ${pressure} ${pressureDamp}
fix             2 all nph aniso 2000 ${pressure} ${pressureDamp}
fix             2 all nph aniso 2000 2000 ${pressureDamp}
fix             2 all nph aniso 2000 2000 1000
fix             3 all temp/csvr ${temperature} ${temperature} ${tempDamp} ${seed}
fix             3 all temp/csvr 270 ${temperature} ${tempDamp} ${seed}
fix             3 all temp/csvr 270 270 ${tempDamp} ${seed}
fix             3 all temp/csvr 270 270 100 ${seed}
fix             3 all temp/csvr 270 270 100 745823
velocity 	all create ${temperature} ${seed} dist gaussian
velocity 	all create 270 ${seed} dist gaussian
velocity 	all create 270 745823 dist gaussian

run             1000000
PPPM initialization ...
  extracting TIP4P info from pair style
  using 12-bit tables for long-range coulomb (../kspace.cpp:340)
  G vector (1/distance) = 0.37089722
  grid = 24 27 25
  stencil order = 5
  estimated absolute RMS force accuracy = 0.0032495733
  estimated relative force accuracy = 9.7859934e-06
  using double precision FFTW3
  3d grid and FFT values/proc = 35904 16200
Last active /omp style is kspace_style pppm/tip4p/omp
Neighbor list info ...
  update every 1 steps, delay 7 steps, check yes
  max neighbors/atom: 2000, page size: 100000
  master list distance cutoff = 10.8154
  ghost atom cutoff = 10.8154
  binsize = 5.4077, bins = 4 5 5
  1 neighbor lists, perpetual/occasional/extra = 1 0 0
  (1) pair lj/cut/tip4p/long/omp, perpetual
      attributes: half, newton on, omp
      pair build: half/bin/newton/omp
      stencil: half/bin/3d
      bin: standard
Per MPI rank memory allocation (min/avg/max) = 39.73 | 39.73 | 39.73 Mbytes
Step Temp PotEng TotEng E_pair E_mol Press Lx Ly Lz Volume Pxx Pyy Pzz Pxy Pxz Pyz 
       0          270   -5396.4194   -4933.6487   -5396.4194            0     -8991.61    18.207572    23.629178    22.213196    9556.7825    -9272.227   -9505.9789   -8196.6242   -1637.6985    784.46514    906.24441 
     500     265.2251   -4206.3187    -3751.732   -4206.3187            0     1998.493    18.054902    23.386497    22.086914    9325.9987     3087.329     2463.724    444.42598   -815.81939   -501.51445    261.63003 
    1000    271.27271     -4216.19   -3751.2379     -4216.19            0    556.58681    18.046177    23.588744    22.080673    9399.4473    1095.7777    836.83283    -262.8501    896.22631    223.74036    22.503771 
    1500     261.7066    -4207.387   -3758.8308    -4207.387            0    1729.7076    18.061059    23.365366    22.039509     9300.745    1696.3087    1854.5453    1638.2688    1002.9912    377.85111    116.52593 
    2000    285.22863   -4235.7341   -3746.8619   -4235.7341            0    3079.9844    18.070075    23.309147    21.874495    9213.4948    2594.8385    3191.3087     3453.806   -562.63653    425.09481   -552.02116 
    2500    279.16652   -4213.9355   -3735.4536   -4213.9355            0    2068.2689    18.007964     23.66936    22.001278    9377.7579    3196.7994    654.65128     2353.356   -1087.5864     934.9645    143.74575 
    3000    269.27304   -4211.6515   -3750.1267   -4211.6515            0     1583.084    18.095547    23.136626    22.304209    9338.1008    2795.0237    1807.9744    146.25406   -1116.9725    414.10296   -381.56062 
    3500    271.57818    -4249.399   -3783.9233    -4249.399            0    1297.9226    17.990034     23.73181    21.844036    9326.0071    2226.0038    10.737897     1657.026   -141.38472    128.13115    506.54924 
    4000    242.31618   -4208.1572   -3792.8355   -4208.1572            0     1247.845    18.134338    23.513221    22.030936    9393.9184    519.92473    2299.2516    924.35875   -1194.3698    426.31869    450.47791 
    4500    260.98388     -4219.27   -3771.9525     -4219.27            0    2047.8062    17.998899    23.212848    22.268407    9303.8673    2694.1992    3267.9311    181.28836   -1210.1747    708.07342   -269.27196 
    5000    270.84768   -4189.1659   -3724.9422   -4189.1659            0    1387.6815    18.026578    23.736783    21.724684    9295.8394     590.0974     1163.479    2409.4681    275.00346   -400.01878    1133.8411 
    5500    264.99613   -4246.2213    -3792.027   -4246.2213            0    2223.8283    18.051153    23.234437    22.249294    9331.5402    2021.5672    3628.7648    1021.1529    359.52611   -140.35357    104.14787 
    6000    278.81201    -4202.839   -3724.9648    -4202.839            0    2795.3787    17.983009     23.43298    22.080537     9304.639    1057.4728    4292.9216    3035.7416   -574.20632    26.546828    750.96341 
    6500    268.19355   -4224.8243   -3765.1498   -4224.8243            0    2075.2124    18.060542    23.542854     21.91012    9316.1107    3063.3125    581.37196    2580.9527    396.38844    260.48789     424.8541 
    7000    282.19982   -4234.7568    -3751.076   -4234.7568            0    1878.5757    18.012754    23.154722    22.354215    9323.5033    2375.3575    1434.3434    1826.0261   -870.05078    136.13303   -542.58709 
    7500    265.21025   -4216.6972   -3762.1359   -4216.6972            0      1718.03    18.042884    23.817962    21.675388    9314.8834    1385.7501    1105.8504    2662.4893    178.14679    1070.1317    172.36372 
    8000    279.25451   -4206.4339   -3727.8013   -4206.4339            0    2410.3712    18.119856    23.275299    22.015321    9284.8526     2995.608    3125.1311    1110.3744    98.039491   -551.82562   -643.74295 
    8500    260.56643   -4180.1056   -3733.5037   -4180.1056            0    2155.4718    17.922067    23.395647    22.195815    9306.6684    1948.0915    2773.4103    1744.9135    192.77256    327.29782    1039.9805 
    9000    293.90861   -4211.0507   -3707.3014   -4211.0507            0    2441.9555    18.217238    23.477171    21.698626    9280.2681    1944.5386    2591.1948     2790.133    339.80918    294.15149    805.37167 
    9500    284.78566   -4217.8997   -3729.7868   -4217.8997            0     1217.599    18.009358    23.470319    22.249621    9404.5892     2482.069    119.42222     1051.306   -1068.5516   -435.86506   -276.32966 
   10000     281.1819     -4220.99   -3739.0539     -4220.99            0    1369.9301    17.973278    23.341421    22.270889    9343.1245    1485.8122    1477.0831    1146.8951   -576.26594   -745.96831   -160.09514 
   10500    286.06246   -4192.7652   -3702.4639   -4192.7652            0    2385.6651    18.189158     23.53442    21.755222    9312.7858    2947.4445    552.94903    3656.6017    6.5872504   -631.45529     437.9821 
   11000    276.67104   -4225.9264   -3751.7217   -4225.9264            0    2707.0857    18.006129    23.399736    22.200838    9354.0713    3207.6013     3944.048    969.60767   -508.71836    327.76324   -79.704983 
   11500    268.45969   -4237.6775   -3777.5468   -4237.6775            0    1418.0436    17.956368    23.395242    22.271368    9356.0586    1639.9842    1133.2368    1480.9098    -1392.061    72.394741    832.19502 
   12000    284.47108   -4193.2851   -3705.7114   -4193.2851            0    742.14079    18.177569    23.612344    21.946424    9419.7346   -656.41031    1066.3969    1816.4358    601.46732   -572.89939    125.14382 
   12500    268.22045   -4203.3813   -3743.6606   -4203.3813            0    2912.2231    17.971939     23.34692    22.134731    9287.4987    3535.4224    3610.7097    1590.5373   -131.31272   -510.26761   -192.20893 
   13000    270.77102   -4179.9158   -3715.8235   -4179.9158            0    3113.6253    17.987805    23.498754    22.085506     9335.345      3726.68    3692.4161    1921.7798     909.4042    -319.4164   -1083.2647 
   13500    260.52982   -4226.1655   -3779.6263   -4226.1655            0    1753.7222    18.313232    23.364722    21.894156    9368.1497    163.44089    1790.5973    3307.1282    650.11757    913.95494   -59.501648 
   14000    269.47098   -4235.5505   -3773.6865   -4235.5505            0    1945.3231    17.778836    23.588689     22.30347    9353.6166     2873.362    2307.4336    655.17356    -666.4406    105.20602    -321.6299 
   14500     264.4892   -4231.1998   -3777.8744   -4231.1998            0    2474.0702    18.241212    23.312917    21.946421    9332.8442     2679.162    2333.4684      2409.58   -123.97598    113.50683   -991.28383 
   15000    259.46108    -4191.572   -3746.8646    -4191.572            0    2342.3626    18.031493    23.564662    22.008587    9351.5815    647.14593    2708.9964    3670.9455    -926.2982    153.27483   -1334.8553 
   15500    262.75636   -4202.5908   -3752.2354   -4202.5908            0    1923.3559    17.935297      23.2598    22.362209    9328.8743    1282.0324    1081.6306    3406.4048   -654.60986   -512.16197   -157.04547 
   16000     272.0778   -4200.6698   -3734.3378   -4200.6698            0    2990.4933    18.131598    23.404491    21.724027    9218.8259    1762.7064    2468.3615    4740.4118   -993.95518    146.49016    589.68414 
   16500    277.30208   -4182.4412   -3707.1549   -4182.4412            0    1600.7062    17.979723    23.519757    22.130702    9358.6023    2717.8302    692.09752    1392.1909    456.17533   -658.48375    84.978405 
   17000    278.13575   -4219.1474   -3742.4323   -4219.1474            0    1842.6328    18.135337    23.150253    22.154563    9301.3194    1014.9384    2664.3846    1848.5754   -31.791126    -401.2974    264.09831 
   17500      273.988   -4217.9073   -3748.3012   -4217.9073            0    1312.5878    17.995786    23.763614    21.921999    9374.8311    1489.9066    668.03449    1779.8222   -3.8242176    499.61788    200.81234 
   18000    254.22657   -4209.7347   -3773.9991   -4209.7347            0    3942.3288    18.030223    23.149931    22.068803    9211.4835    4832.7626    4601.0106    2393.2132    232.99202   -216.05395    175.09332 
   18500    250.58186   -4198.4995   -3769.0108   -4198.4995            0    1632.3507    18.014581    23.355387    22.258417    9364.9507    1213.1794     2765.658    918.21452    958.20386    175.79309   -664.25369 
   19000    276.45855   -4228.6108   -3754.7703   -4228.6108            0    1720.2186    18.014358    23.605301    21.983604    9348.1834     2762.811   -243.40136    2641.2462   -473.91245    68.071367    147.27221 
   19500    278.86198   -4204.6188   -3726.6589   -4204.6188            0    2559.2935    18.145706    23.289184    22.137601    9355.3212    520.52671     3786.826    3370.5278    227.45201   -1166.6281   -243.59878 
   20000    261.10955   -4220.1058    -3772.573   -4220.1058            0    908.23507    18.099465    23.561731    22.140601    9441.9637    1278.4024    975.06622    471.23657   -12.171961   -159.17331   -193.90693 
   20500    271.79412   -4202.4155   -3736.5697   -4202.4155            0    2817.4149    18.069268    23.599454    21.741124    9270.9554    1507.2504    3112.2045    3832.7898    29.479065   -595.86916    511.14687 
   21000    260.98895   -4210.2618   -3762.9356   -4210.2618            0    3003.4433    18.022639    23.218435    22.181324    9281.9408    3563.5948    2751.6808    2695.0543    26.845558    221.31224    603.50824 
   21500    266.71807   -4233.6634   -3776.5178   -4233.6634            0    2927.3016    17.901261    23.572423      22.0898    9321.3675     4131.548    2080.0076    2570.3492   -423.50807   -200.46482    1025.1877 
   22000    275.37303    -4193.611    -3721.631    -4193.611            0    835.84071    18.298562     23.54993    21.736247    9366.7979   -182.42131    1455.8047    1234.1387    527.36089    228.33441   -277.54448 
   22500    274.56474   -4228.4924   -3757.8978   -4228.4924            0    2624.1492    17.866804    23.396807    22.279992    9313.6195    4067.1901     903.2818    2901.9757    86.103303    208.93726   -659.99204 
   23000    258.34485   -4221.9385   -3779.1443   -4221.9385            0    2017.6541    17.976491    23.484166    22.084263    9323.1567    2243.5432    1654.7138    2154.7053   -437.02171   -194.49397     405.4264 
   23500    277.20426   -4215.5387   -3740.4201   -4215.5387            0    2865.2548    18.165579    23.401869    21.786263    9261.5257    2236.3375    3100.2572    3259.1697   -589.52995    -1196.698    133.01305 
   24000    275.62554   -4156.6361   -3684.2234   -4156.6361            0    2653.9049    17.889615    23.317217    22.207542    9263.5657    3729.1212    2494.2289    1738.3646   -1142.1701    548.55811   -11.772837 
   24500    279.21591   -4248.5835    -3770.017   -4248.5835            0    2047.4917    18.012897    23.458108    21.973056    9284.6816    2398.4449    1315.5477    2428.4825   -404.45513    170.27299    426.39946 
   25000     278.1251   -4213.3045   -3736.6076   -4213.3045            0    1601.7652    18.118958    23.532292    21.900719    9338.0419    2944.4622    297.02553    1563.8079    291.05563   -336.61347   -155.34672 
   25500    267.55204   -4215.7187   -3757.1437   -4215.7187            0    1989.1682    17.979458      23.3354    22.215539    9320.7037    467.42763    1461.2376    4038.8394   -610.92714   -605.65031    58.193662 
   26000    279.72654   -4186.9134   -3707.4716   -4186.9134            0      3008.36     18.07463    23.508329    21.933383    9319.5895    3437.6656    3446.3776    2141.0369    1613.2247   -926.87844    184.08492 
   26500    257.38069   -4244.7356   -3803.5939   -4244.7356            0    550.35789    18.088204    23.602297     22.06984    9422.1256     2372.573   -511.00562   -210.49374    323.89939   -80.718048    501.60129 
   27000    277.01689   -4198.6723   -3723.8748   -4198.6723            0    2829.7002    17.994667    23.279096    22.232288     9313.096    3705.3563     2875.098    1908.6463    386.72289   -346.90811    201.63868 
   27500    273.91719    -4213.221   -3743.7363    -4213.221            0    1426.2107    18.075027    23.723911    21.926379    9402.2576    2794.6268    1387.4871    96.518187    416.19613   -24.716155     130.6275 
   28000    268.83106   -4228.4313   -3767.6641   -4228.4313            0    2607.6536     18.13141    23.204882    22.144821    9317.1508    762.95229    3473.5034    3586.5051    1216.7814   -53.947689   -445.75203 
   28500    260.97568   -4199.2528   -3751.9494   -4199.2528            0    2533.2135    17.763745    23.525518    22.218763    9285.2502    5354.6122    2064.4418    180.58644   -363.78427    144.12486   -100.59578 
   29000    257.62916    -4218.955   -3777.3875    -4218.955            0    2252.2504    18.452787    23.333624      21.6483    9321.1171    841.04671     3343.976    2571.7284    387.58232    -1038.039    243.93709 
   29500    276.34149   -4209.4865   -3735.8466   -4209.4865            0    1577.6312    17.980476    23.565266    22.080605    9355.8769    2734.9432    1341.6044     656.3459    791.45711    -234.7081    379.34195 
   30000    284.00368   -4209.3312   -3722.5586   -4209.3312            0    832.30913    18.003815    23.429997    22.201823    9365.3799     1337.132   -362.62567     1522.421    -304.5005   -167.23679    520.93084 
   30500    268.08138   -4234.3814   -3774.8991   -4234.3814            0    369.17976    18.258856    23.565278    21.830886    9393.2848   -1230.8326    145.79913    2192.5727     53.31264   -86.713148     39.83417 
   31000    271.56528    -4174.917   -3709.4634    -4174.917            0    2625.3866    17.778258    23.416609    22.384401    9318.7725    2768.7385    3920.4005    1187.0208   -674.16989   -528.97196    622.03311 
   31500    265.70932   -4206.2002   -3750.7835   -4206.2002            0    651.67343     18.21482     23.49691    22.035233    9430.9031    765.35762    2197.0105   -1007.3478   -1266.2571    808.00891    50.328237 
   32000     262.0644   -4178.6511   -3729.4817   -4178.6511            0    3508.1746    18.007404    23.523817    21.900251    9277.0096    2121.4755    3249.1288    5153.9195   -326.35951   -373.95357   -30.924792 
   32500    264.75528   -4195.2187   -3741.4372   -4195.2187            0    1099.4364    18.066844    23.489958    22.117652    9386.4975    1319.8732    794.38608    1184.0499    809.45498    81.333355    521.98658 
   33000    264.94869   -4186.6542   -3732.5412   -4186.6542            0    386.05379    18.149618    23.421697    22.115874    9401.3438   -759.25519    2584.3181   -666.90148    91.540803    495.23221     685.4749 
   33500    267.52995   -4208.1033   -3749.5661   -4208.1033            0    1261.7396    18.021317    23.533001    22.125528    9383.3412     2186.704    2281.4162   -682.90131   -393.68556   -448.51898   -135.22413 
   34000    274.27708   -4250.0162   -3779.9146   -4250.0162            0    577.29006     18.31091    23.196586    21.952054     9324.148   -897.90235    1963.4526    666.31995    206.82836    195.47146    1579.7629 
   34500    271.21808   -4250.1152   -3785.2567   -4250.1152            0    2758.8858    17.660339     23.66727     22.20449    9280.8553    2253.8311    1616.0695    4406.7566   -1387.7514   -24.399975    41.179905 
   35000    266.19275   -4249.1327   -3792.8874   -4249.1327            0     1976.797    18.235719    23.320081    21.948705    9333.8722    1208.3007    1931.7867    2790.3036    199.21495    24.017148   -59.161479 
   35500    268.04192    -4225.865   -3766.4503    -4225.865            0     1822.802    18.005309    23.667282    22.058397    9399.8931    2768.1034     1048.735    1651.5677    404.42355   -939.44669    583.59678 
   36000    258.03385   -4213.4625   -3771.2013   -4213.4625            0    2353.6511    18.036637    23.311301    22.246229    9353.5933    2880.7529    3135.1631    1045.0374    1382.8025   -182.68109    456.14831 
   36500    286.84544   -4217.3284   -3725.6851   -4217.3284            0    1203.7876     18.13322    23.589594    22.054857    9434.0819    2459.3992   -464.57051     1616.534    320.68247   -32.264566   -986.04047 
   37000    268.33955    -4196.519   -3736.5942    -4196.519            0    2597.1538    17.989906    23.540917    22.031809    9330.4466    4173.8725    2913.9028    703.68599   -159.71535    386.55962   -190.88175 
   37500    261.63187   -4195.9609   -3747.5328   -4195.9609            0    2583.3583    18.138443    23.089436    22.259711    9322.5097    3323.7938     2002.263    2424.0182    127.35843   -853.34665    610.76448 
   38000    268.42624     -4202.96   -3742.8866     -4202.96            0    2014.1009     17.87913    23.918896    21.912443    9370.8357    1471.1115    596.92836    3974.2628   -201.54724   -558.36074   -240.47955 
   38500    262.42752   -4196.9788    -3747.187   -4196.9788            0    1914.1908    18.300318    23.219313    22.050057    9369.5281    2152.7283    1222.2091     2367.635   -1129.6242   -990.86444    763.56659 
   39000    278.38552    -4217.531   -3740.3877    -4217.531            0    2782.6208    17.712991    23.700846    22.121723    9286.9839    3829.9525    2199.1178    2318.7922    177.36907    140.07797   -440.22124 
   39500    257.98315   -4189.3932   -3747.2189   -4189.3932            0    1719.8948    18.208788    23.321348    22.070896    9372.4827    284.58556    2608.7505    2266.3483    -690.7838     639.8594    203.03974 
   40000    263.15204   -4204.3238   -3753.2902   -4204.3238            0    1246.8206    18.056438     23.56654    22.047264    9381.7233      1023.31    930.41529    1786.7364    562.96943   -75.919554    645.41953 
   40500    264.64869   -4243.3133   -3789.7145   -4243.3133            0    963.74357    17.958583    23.500101    22.285578    9405.1493    1293.2589    255.39983     1342.572   -468.73397    531.99931    511.10555 
   41000    263.41146   -4204.2295   -3752.7513   -4204.2295            0    2559.4554    18.156896    23.375298    21.896507    9293.3779    2764.8636    2371.4053    2542.0972     97.98058   -152.44755   -184.11114 
   41500    272.85963    -4201.889   -3734.2169    -4201.889            0    2592.5028    18.011289    23.563164    22.115416    9385.8482    2752.0817    1058.9531    3966.4736   -652.75613   -834.48321    948.50499 
   42000    260.48447   -4197.4855   -3751.0241   -4197.4855            0    2859.4485    18.016379    23.234699    22.141934    9268.7274     1566.974    4990.5838    2020.7876   -572.99998    743.16623   -602.64537 
   42500    256.23519   -4186.8117   -3747.6333   -4186.8117            0     2220.317    17.996341    23.721077    21.882543    9341.4959    2074.6846    1232.4941    3353.7724   -766.86793     123.4773      98.5029 
   43000     274.6773    -4209.353   -3738.5655    -4209.353            0    778.55938    18.158568    23.391494    22.143702    9405.6705   -324.00118    1531.7398    1127.9395    179.40107   -604.53926    599.04724 
   43500     267.5573   -4217.4751   -3758.8911   -4217.4751            0     4426.409    17.894006     23.44539    22.040879    9246.8532    6155.7386    3042.2191    4081.2695   -275.12984   -89.042289    168.93214 
   44000    278.47909   -4212.2371   -3734.9335   -4212.2371            0    2090.6056    18.200561    23.526551    21.816022    9341.5426    2762.3419    1732.5696    1776.9053    -32.16058    531.43317   -229.95406 
   44500    268.55191   -4184.3342   -3724.0454   -4184.3342            0    2801.9946    18.000942    23.295968    22.213659    9315.2838    3902.9487    3315.6159    1187.4192    407.64416    -138.4254     771.6507 
   45000    259.35425   -4248.3165   -3803.7922   -4248.3165            0    741.41498    18.030586    23.599355    22.114321    9409.8691    554.82125   -49.884933    1719.3086   -542.37163    167.35468   -1205.2757 
   45500    257.58207   -4210.2439    -3768.757   -4210.2439            0    3667.4549    18.315003    23.342251    21.722804    9286.7898    3327.7689    3837.3352    3837.2605   -643.83969    354.60931    448.92807 
   46000    274.54134   -4203.2268   -3732.6723   -4203.2268            0    1820.9833    17.786179    23.523121    22.294988    9327.9207    2246.0222    1657.3349    1559.5928    -289.5705   -970.12226   -1013.0151 
   46500    270.32078   -4229.0283   -3765.7078   -4229.0283            0    1960.5287    18.149218    23.450769    21.899542    9320.7323    2663.7925    1492.2745     1725.519   -168.53982    375.38348   -336.33071 
   47000    260.12046   -4208.2587   -3762.4211   -4208.2587            0     4037.595     17.98984    23.487931    21.914297    9259.7572    4615.6045    3509.8406    3987.3401   -54.222571   -559.25278    947.71455 
   47500    277.93755    -4221.768   -3745.3926    -4221.768            0    1196.4889    18.048146    23.359265    22.206513    9362.0754   -168.10901    2609.8264    1147.7494   -322.64432    90.241607   -86.710711 
   48000    277.47096   -4220.1659   -3744.5901   -4220.1659            0    1098.6298    18.119466    23.522861    22.111485    9424.3941    513.23176    2206.2834    576.37419    213.76504   -412.83555   -490.79505 
   48500    274.97448   -4206.4939   -3735.1971   -4206.4939            0    1581.1289    18.044521    23.416673    22.091174    9334.4636    1990.3401    1825.6322    927.41444    283.73172  -0.32570596   -1149.5343 
   49000    268.26447   -4191.8392   -3732.0431   -4191.8392            0    959.62748    18.089748    23.435677    22.270622      9441.53    1962.5035    1139.9531   -223.57419   -36.945844   -301.74269    161.70937 
   49500    284.18109    -4177.809   -3690.7324    -4177.809            0    3786.1602    18.044594     23.47899    21.873962    9267.3164    3885.2378    2955.3862    4517.8566   -462.66704   -583.87441   -125.65938 
   50000    270.89429   -4226.8611   -3762.5575   -4226.8611            0    1109.1325    18.160273    23.469591    22.122018    9428.7176    405.79078    846.30408    2075.3025    534.41332   -375.62825    436.37036 
   50500    266.82058   -4191.4451   -3734.1237   -4191.4451            0    3005.9744    17.801803     23.55877    22.261841    9336.3621    3884.2118     3802.505    1331.2064    403.47368   -1192.2184   -48.023303 
   51000    275.78898   -4190.5517   -3717.8588   -4190.5517            0    1176.2227    18.308707    23.534926    21.815137    9400.0131     1738.391    68.670544    1721.6065    206.36439   -1172.4494   -668.93802 
   51500    278.85886   -4215.0283   -3737.0738   -4215.0283            0   -80.349697    18.005133    23.563863    22.301506    9461.8712    1005.9995   -1639.3932    392.34462   -733.13744    231.94561    27.910518 
   52000    274.90537   -4225.3294    -3754.151   -4225.3294            0    2446.7591    18.021506    23.373723    22.005096    9269.1997    3112.9016    2373.4926     1853.883    543.91286   -286.22602    330.98757 
   52500    285.88409   -4219.6189   -3729.6234   -4219.6189            0    789.16518    18.075807    23.498498    22.084703    9380.5729    -27.82422    1091.5929    1303.7269   -787.83011   -205.46651    351.84509 
   53000    273.91068    -4243.254   -3773.7805    -4243.254            0    2664.4822    17.997335    23.528305    21.977633    9306.3584    3600.0467    990.84159    3402.5582   -799.84319   -762.74786    647.99421 
   53500    266.80585   -4210.5225   -3753.2264   -4210.5225            0    1958.4828    18.240199    23.404279    22.032421    9405.6122    388.67231    2662.8208    2823.9553    1111.8974   -338.53323   -55.353457 
   54000    273.67215   -4198.2223   -3729.1576   -4198.2223            0    1711.3579    17.900822    23.609502    22.301776    9425.3885    1738.0529    876.92369     2519.097    488.89871    383.52207   -504.65967 
   54500    256.04372   -4236.6797   -3797.8295   -4236.6797            0    2465.6093    18.096583     23.47324    21.996514    9343.7985    2406.3349    1845.2867    3145.2062   -308.98055   -103.61821    152.02514 
   55000    280.53002   -4228.7408   -3747.9219   -4228.7408            0      2927.87    18.073143    23.507295    21.968623    9333.3851    2689.1326    3131.3064    2963.1708   -243.69484   -1021.5996   -543.70257 
   55500    254.91156   -4218.8201   -3781.9104   -4218.8201            0    3144.3079    17.931218    23.332949    22.211031    9292.8327    4628.8603    3817.2246    986.83877     1107.578    168.93246   -71.184139 
   56000    267.17849   -4176.1315   -3718.1968   -4176.1315            0    1419.0772     18.22115    23.508032    22.051813    9445.7486    2168.3514    2140.6611   -51.780969    1145.3276   -173.68945   -659.39374 
   56500    268.28179    -4198.395   -3738.5692    -4198.395            0    2334.1319    18.061943    23.447801    21.902687    9276.0689    2429.8846    2410.3414    2162.1697   -188.17706     197.6401    333.82319 
   57000    281.59974    -4229.457   -3746.8047    -4229.457            0    3463.2192    18.006762    23.243711    22.119179    9257.8492    3970.9458    3619.9179     2798.794     -208.497   -428.08379    83.099232 
   57500     266.9098   -4192.3066   -3734.8323   -4192.3066            0    1023.1124    17.929712    23.723833    22.062623    9384.5906    1352.0149   -227.12383    1944.4462   -244.92677    366.89461   -1520.4761 
   58000     276.1527   -4215.8456   -3742.5293   -4215.8456            0    3885.9651    18.314994    22.968461    21.957572    9236.8309    3594.3506    4638.6593    3424.8855    -322.9279   -155.69891   -192.70887 
   58500    275.85433   -4222.7735   -3749.9686   -4222.7735            0    3118.7428     17.85246    23.610956    22.024755    9283.7349    2587.8843    2771.3491     3996.995    819.72321    120.17065     1074.901 
   59000    278.39968   -4216.7528   -3739.5853   -4216.7528            0    2951.3407      18.1408    23.211755    22.015226    9270.1671     2512.462    4463.0849    1878.4751   -641.23684   -164.68359    892.36827 
   59500    286.44173    -4228.105   -3737.1537    -4228.105            0     1958.047    18.031412    23.512385    21.977072    9317.4325    2320.0148    1583.5907    1970.5355   -370.47553    264.65809    883.75691 
   60000    271.40031    -4253.429   -3788.2582    -4253.429            0    1303.2827    18.026202    23.442269    22.148932    9359.5868    -560.3773    1073.5438    3396.6817    482.61532   -255.71011   -27.453307 
   60500    253.20651    -4205.994   -3772.0067    -4205.994            0     2095.089    18.110433     23.41181    22.043848    9346.5476    1493.0779    2167.2412     2624.948    137.24189    -835.9583   -355.69968 
   61000     263.8069   -4207.2745   -3755.1185   -4207.2745            0    787.39684     18.10079    23.545764    22.166172    9447.1545    898.61274     684.4719    779.10588   -331.36984   -711.20316    41.360152 
   61500     271.5454   -4206.6551   -3741.2355   -4206.6551            0    2006.0282    18.083642     23.49141    22.031986    9359.4137     2159.448    1554.4512    2304.1854   -1031.4337    52.830823   -41.583077 
   62000    259.12428   -4171.2683   -3727.1381   -4171.2683            0    1773.7901    18.165274    23.343817    22.147716    9391.6692    1254.5977    2548.2255     1518.547     378.6657    257.27483    454.58025 
   62500    260.42393   -4196.2784   -3749.9207   -4196.2784            0    3350.4062    17.835798    23.487529    22.187035    9294.5661    3755.3829    3243.8151    3052.0205    833.56868    45.934166    37.268078 
   63000    278.16982   -4180.2538   -3703.4803   -4180.2538            0    2533.9319    18.285493     23.42081       21.922    9388.3389    4091.7855    1681.3497    1828.6606   -104.71483   -125.17411   -849.76529 
   63500    255.99869   -4216.5774   -3777.8043   -4216.5774            0    3435.0691    17.784716    23.423962    22.154006    9229.1041    3238.5948    5816.6387    1249.9739    725.87166    690.10438    211.99052 
   64000    271.03548   -4211.6622   -3747.1167   -4211.6622            0    1440.7605    18.182834    23.378005    22.140398    9411.4046    1128.7144    1919.6211     1273.946   -542.36822   -436.03882    319.81398 
   64500    258.58193   -4213.4598   -3770.2592   -4213.4598            0    1321.1592    18.025506    23.622158    22.033908    9382.0681    1019.3366    2082.0035    862.13736   -95.543197   -121.19612    -273.0426 
   65000     257.9205   -4220.6765   -3778.6096   -4220.6765            0    3478.8931    18.116017    23.179082    22.000475    9238.2776    4397.9485    3315.1889    2723.5418   -1133.6264    219.66242    659.14489 
   65500    271.12673   -4214.9533   -3750.2514   -4214.9533            0    2967.2408    17.924672    23.373187    22.100082    9258.9781    2506.2254    2999.3511    3396.1459    268.40823    107.84311    1031.8203 
   66000    281.48033    -4198.818   -3716.3703    -4198.818            0    453.49966    18.153268     23.60301    22.025181    9437.1683   -229.17563    83.827024    1505.8476   -880.65518   -553.09371    244.08818 
   66500     276.4897   -4201.8765   -3727.9826   -4201.8765            0    787.42725    18.101588    23.370147    22.183673    9384.5088    806.06198   -8.8705864    1565.0903    600.79901    676.06447   -368.82287 
   67000    267.91036   -4251.1466   -3791.9574   -4251.1466            0    1070.9986    17.842383     23.57605    22.277202    9370.9696    1375.4494    883.13458    954.41181    741.33607   -169.23903    700.71415 
   67500    264.28316   -4205.6696   -3752.6973   -4205.6696            0    3184.1774    18.382508    23.225848    21.653075    9244.7657     2951.227    3231.8734    3369.4317   -350.18475   -284.84415   -872.25431 
   68000    275.70651   -4225.7967   -3753.2452   -4225.7967            0    1570.1748    17.923681    23.480186    22.158387    9325.3872    1467.9903    1295.6207    1946.9133    811.24387   -550.05728   -47.435601 
   68500    291.21587   -4237.6531   -3738.5191   -4237.6531            0    2382.2066     18.10116    23.402749    22.134289    9376.4589    2368.0781    2507.4085    2271.1332    191.57356   -162.96074    -593.8806 
   69000    265.95238   -4252.5692   -3796.7359   -4252.5692            0    511.12789    18.236147    23.520267    21.844709     9369.612   -706.81608     1031.133    1209.0668    138.79858   -714.13071   -261.60112 
   69500    261.46463   -4209.3785   -3761.2371   -4209.3785            0     1809.633    17.933568    23.541792    22.149885    9351.4227    2410.7854    471.80855    2546.3051   -56.857463    632.29722    217.93178 
   70000      280.623   -4225.7951   -3744.8169   -4225.7951            0    1698.7946    18.228226    23.214384     22.10143    9352.3758    1457.7753    3280.3182    358.29038   -42.902439   -21.061203    131.51403 
   70500    267.31721   -4207.2556    -3749.083   -4207.2556            0     2026.469    17.951906    23.784594    21.829132    9320.5763    1140.0385    947.06338     3992.305    72.932037   -272.57159    52.022409 
   71000    269.32845   -4207.7379   -3746.1182   -4207.7379            0    1953.9872    18.098541    23.158684    22.153755    9285.4891    867.10636    3389.4974    1605.3579   -880.95187   -1012.0888   -4.3873466 
   71500     267.5022   -4226.5638   -3768.0741   -4226.5638            0    1311.5274    17.900759    23.561189    22.136848    9336.5069    2875.2051    512.76657    546.61059   -408.96575    304.28324    134.78243 
   72000    295.85886   -4183.1486   -3676.0566   -4183.1486            0    2266.9861    18.137173    23.428203    21.861626     9289.472    747.46248    1865.0455    4188.4503   -175.84445    572.18065    401.63764 
   72500     271.4798   -4227.4997   -3762.1926   -4227.4997            0    2696.9043    17.977122    23.393037    22.086124    9288.0875    1620.3705    4072.1253     2398.217   -104.54235    716.26433    21.639399 
   73000     266.2299   -4242.0741   -3785.7651   -4242.0741            0    2203.9484    17.951194    23.477715    22.071165    9301.9593    3654.6159    1277.8831    1679.3462    -1367.777    278.94203    228.98374 
   73500    274.57354   -4200.4243   -3729.8146   -4200.4243            0    1459.5246    18.231507    23.491051    21.865328    9364.4229    1309.3858    84.422156    2984.7659   -93.505485    90.409974   -1011.8661 
   74000    263.44367   -4210.4273   -3758.8938   -4210.4273            0    1862.7018    17.816097    23.633653    22.208741    9351.2004    2213.7441    963.79341    2410.5678   -693.41825    206.18743    430.83485 
   74500    267.78138    -4193.381   -3734.4128    -4193.381            0    1587.2611    18.316208    23.106398    22.073758    9342.0912    1425.0655    1173.2272    2163.4907   -107.13778   -269.38606   -284.03944 
   75000    269.07906   -4211.2389   -3750.0466   -4211.2389            0    2810.9039     17.90171    23.704211    21.935775    9308.3561    4283.7889    1975.3498    2173.5731    994.94583    -607.0689   -306.45522 
   75500    257.21775   -4222.0652   -3781.2028   -4222.0652            0    1974.2328     18.14808    23.196409    22.226448    9356.6737    1695.6997    1908.0484    2318.9503     320.4636    250.78023   -121.30609 
   76000    266.66311   -4208.5799   -3751.5285   -4208.5799            0    1648.4571    17.960859    23.668921    22.022084    9361.8996    3012.6329    883.78576    1048.9526    154.88902    1173.9369   -530.37185 
   76500    260.10801   -4268.8042    -3822.988   -4268.8042            0    2205.3857     18.27132    23.467403    21.785872    9341.3554     1445.428    1460.4179     3710.311    237.96082     153.4001    -255.1051 
   77000    269.17705   -4232.9913    -3771.631   -4232.9913            0    2061.3468    18.035766    23.394229    22.164479     9351.922     2355.552    1192.1232    2636.3651    378.51052   -565.22948   -551.12361 
   77500     272.4712   -4209.9431   -3742.9367   -4209.9431            0    2001.9935     18.01069    23.540411    22.036417    9342.9793    868.60867    3239.2577    1898.1141   -966.23568    809.95991    30.467294 
   78000      308.153    -4230.245   -3702.0813    -4230.245            0    1824.5635    18.229381    23.324702    22.062244     9380.753    1031.4505    4146.3912    295.84879    298.36641   -652.12426   -64.911105 
   78500    268.69041   -4241.2373   -3780.7111   -4241.2373            0    1574.1777    17.953039    23.646166     22.08663     9376.228    1877.9385    329.36234    2515.2323    105.12586   -706.48249    583.07636 
   79000     274.8065   -4225.3436   -3754.3347   -4225.3436            0    2293.0954    18.184478    23.201809    21.885069    9233.5905    2443.4799    2591.9955    1843.8108   -110.48243    429.84317    427.25181 
   79500    277.55508   -4201.5758   -3725.8559   -4201.5758            0    732.56659    18.050962    23.367202    22.178512    9354.9072    424.80933    376.14269    1396.7477    137.98115    28.874999    539.10219 
   80000    280.89218    -4182.066   -3700.6264    -4182.066            0    1972.3116    17.974411    23.605047     21.94257    9309.9436     1544.769    2268.2247    2103.9411    62.938619     65.97637    597.10729 
   80500    269.92011   -4212.1398    -3749.506   -4212.1398            0    1483.4279    18.218307    23.345315    22.038944    9373.4298    470.31913    3267.7002    712.26438   -498.82671   -375.36912   -621.29817 
   81000    264.05112    -4202.891   -3750.3164    -4202.891            0     2352.587    17.795496    23.626235    22.209101    9337.6072    2809.8359    2049.4635    2198.4617    704.38128    -710.8953    -511.0579 
   81500    253.87965   -4194.2367   -3759.0957   -4194.2367            0    855.14865    18.411114    23.282976    21.824459    9355.3938   -1.8166958    500.92329    2066.3394    -852.9918   -849.84757   -459.51693 
   82000    269.98697   -4234.1838   -3771.4353   -4234.1838            0    2790.1837    17.922012    23.449357    22.105054    9289.8624    3164.0435    2377.0041    2829.5036    629.35822   -168.72204   -485.11537 
   82500    293.99215   -4192.3145    -3688.422   -4192.3145            0    529.55123    18.109372    23.494813    22.193037    9442.6118    36.865926    348.30613    1203.4816   -1533.7096   -790.39645    143.43729 
   83000    268.19737   -4229.9777   -3770.2966   -4229.9777            0    3499.8474    18.133283    23.204794    21.898979    9214.6324    5133.7818    3892.5577    1473.2028    237.99954    336.17349   -561.72821 
   83500    269.73031   -4201.8092   -3739.5007   -4201.8092            0    1940.4028    17.939469    23.612863    22.136943    9377.2579    2082.5189     1792.551    1946.1386    1492.6922    308.42876    514.77101 
   84000    289.11203   -4202.9771    -3707.449   -4202.9771            0    2277.0696    18.140739     23.07576     22.15807    9275.6195    2201.6931    3098.8404    1530.6752    343.78161     698.4955   -113.56218 
   84500    274.73994   -4235.3498   -3764.4549   -4235.3498            0    874.15952    17.944698    23.919644    21.857511    9381.9167    230.33941   -664.01031    3056.1495    337.40862   -76.189726    101.79172 
   85000    266.33447   -4211.2489   -3754.7607   -4211.2489            0    2568.4447    18.136246     23.22827     22.14376    9328.5818    2191.4512    3983.5602    1530.3226    243.06815    24.876535    259.59113 
   85500    287.38742   -4190.6538   -3698.0816   -4190.6538            0    1027.0502    18.017035    23.629295    22.187898      9446.05    2236.1988    1329.8879   -484.93595   -412.30805    805.46092   -757.91156 
   86000    280.42055   -4229.7324   -3749.1012   -4229.7324            0    2857.7558    18.321551     23.37883    21.657522    9276.7053    2417.7761     2067.997    4087.4944     771.8577   -232.82695    1344.4201 
   86500    247.33497    -4201.695   -3777.7713    -4201.695            0    1546.9575    17.848807    23.473906    22.362544    9369.4861    2354.6231    1223.1909    1063.0584   -1372.6851    457.95176   -314.89634 
   87000     269.8106   -4227.9542   -3765.5081   -4227.9542            0    2251.6971    18.005175    23.438894     21.98616    9278.6293    3881.8365    2138.1506     735.1041    644.22915   -168.42296    579.67519 
   87500    267.99289   -4204.9012   -3745.5705   -4204.9012            0    1014.6877    18.261042    23.348656    22.007871    9383.5134    486.45846    546.98655    2010.6182    60.233868    740.44368    -291.4927 
   88000    275.24872   -4183.1243   -3711.3574   -4183.1243            0    2132.7179    17.664661    23.694383    22.228321    9303.7357    2685.5286    2492.1942    1220.4309   -269.82354    23.746276   -982.36503 
   88500    272.38575   -4227.5975   -3760.7376   -4227.5975            0    1501.6123    18.315799    23.223226    22.035547    9372.8626   -456.39467    3124.4259    1836.8056    736.88169    338.02387   -167.51552 
   89000    256.99322   -4232.1677   -3791.6901   -4232.1677            0    1482.0248    18.018156    23.626465    22.029732    9378.1743    1306.7783    1437.3975    1701.8987    170.60575   -767.98147    521.99942 
   89500    257.47907   -4215.9721   -3774.6617   -4215.9721            0    1789.5765    18.090158    23.367749    22.128407    9354.2593    1900.7145    1397.1296    2070.8855    1109.4933   -659.78194    1525.9837 
   90000    271.78792   -4205.5519   -3739.7167   -4205.5519            0    3178.9092    17.960804    23.464832    22.034593    9286.4187    2887.9991    4468.3392    2180.3894    231.91818    392.58031   -141.39323 
   90500    269.27248   -4204.8528    -3743.329   -4204.8528            0    1843.2642    18.135619    23.568794    22.027967     9415.517    1828.5628    1986.1451    1715.0847   -394.68821   -475.30826    1051.3621 
   91000    260.36563   -4226.2098    -3779.952   -4226.2098            0    3317.7301    18.062021    23.127133    22.143779    9249.9604    2885.3533    3195.5189    3872.3179   -928.12099   -418.55991    -359.9761 
   91500    246.93968   -4234.4253   -3811.1792   -4234.4253            0    525.49566    18.009247    23.771801    22.004585     9420.432    834.60983   -1072.1098     1813.987   -1021.6047    287.85272    912.59001 
   92000    281.55552   -4212.7859   -3730.2094   -4212.7859            0    2622.0703    18.105444    23.268516    22.261268    9378.3787    3731.1129    2635.2625    1499.8354    648.28988   -324.78135   -628.71998 
   92500    271.98936   -4242.5432   -3776.3627   -4242.5432            0    2540.6432    17.962037    23.486673    22.001531    9281.7524    3181.2194    2642.9483    1797.7619   -983.33428   -967.76613   -210.20298 
   93000     258.8527   -4218.4875   -3774.8228   -4218.4875            0     1967.571    18.120313    23.504369    21.942402    9345.4124    1531.0296    2072.8526    2298.8306   -914.06045   -551.86068    323.34854 
   93500    258.06883   -4215.3053   -3772.9841   -4215.3053            0    5009.3053    17.894757    23.264791    22.054304    9181.5991    5774.4179    3951.1461     5302.352   -94.419654    1399.1244   -378.55107 
   94000    282.09832   -4241.2824   -3757.7755   -4241.2824            0    2308.4056    18.061442    23.520284    22.012705    9351.2228    2382.9565    1743.9613    2798.2989   -501.24006   -823.43287   -602.39895 
   94500    268.64148   -4213.9355   -3753.4932   -4213.9355            0    1107.3672    18.101941     23.48555    22.102573    9396.5563   -364.49337    3416.9438    269.65133   -551.72093   -435.48192    399.71769 
   95000    265.74902   -4228.5925   -3773.1078   -4228.5925            0    2139.2226    18.054701    23.334025    22.124898    9320.9731    3696.1581    1757.5139    963.99586    359.46194    468.81324   -137.91116 
   95500    267.35321   -4221.2855   -3763.0512   -4221.2855            0    2195.0184     18.13964    23.609046    21.944122    9397.7808    2568.0666     1484.586    2532.4027    234.49115    1395.2728    598.45299 
   96000    280.85614   -4209.4368    -3728.059   -4209.4368            0    507.92418    18.064324    23.560484    22.164997    9433.5163     753.5499   -46.564583    816.78721    420.59386   -60.907787    -545.9061 
   96500    287.09877   -4212.2385    -3720.161   -4212.2385            0    3193.3277    17.888962    23.412426    22.175993    9287.8382    4319.0107    2588.2202    2672.7522   -380.01093    796.39723    499.79808 
   97000    272.85882   -4214.8316    -3747.161   -4214.8316            0    1758.3307    18.357664    23.570687    21.683111    9382.3416    1454.2003    2158.1012    1662.6906   -283.24158   -862.35465    -1191.015 
   97500    271.69693   -4213.4891   -3747.8098   -4213.4891            0    1454.0095    18.019409    23.504165    22.197263    9401.2328    2865.0931     1670.298   -173.36246   -112.05426    119.49885   -194.60524 
   98000    268.54345   -4245.4859   -3785.2116   -4245.4859            0    1338.1735    18.092777    23.372079    22.054783    9326.2136    2404.4791    1679.6376   -69.596073    -148.0538   -153.67066    831.87406 
   98500    275.79695   -4209.8933   -3737.1867   -4209.8933            0    4071.5982     18.02646    23.544312    21.882907    9287.5566    4286.8636    3203.6417    4724.2894   -1401.0286    831.20079   -107.43462 
   99000    276.89134   -4215.4541   -3740.8718   -4215.4541            0    2300.8767    18.011901    23.185931    22.355946      9336.35    3547.8225    2721.5189    633.28886      -676.73   -922.70441    996.16621 
   99500    286.30367    -4199.049   -3708.3343    -4199.049            0     2447.153    18.170736    23.621488    21.886169    9393.9773    1577.0312    1825.9733    3938.4546    80.631967    24.401723   -158.36842 
  100000    264.62608   -4219.7303   -3766.1702   -4219.7303            0    3180.8036    17.991633    23.429664    22.040527    9290.9178    2897.2222    4414.7161    2230.4724    316.65832      -105.09    647.73772 
  100500     273.9788   -4222.3112   -3752.7209   -4222.3112            0    2444.0129    18.040641    23.242164    22.203787    9310.1264    1847.9229    2762.7437    2721.3721   -23.735185   -591.74922    183.70178 
  101000    262.32841    -4237.253   -3787.6311    -4237.253            0    2553.1151    17.918296    23.861913    21.785866    9314.8702    3199.4637    1497.9498    2961.9317   -799.41145    193.31182    369.07449 
  101500    268.91446   -4205.3778   -3744.4676   -4205.3778            0    1375.8181    18.141491     23.37649    21.995756    9328.0567    2527.5888    1156.7333    443.13225    600.07252   -248.61224   -223.80639 
  102000    285.02026   -4219.2354   -3730.7205   -4219.2354            0    1680.4306    17.965456    23.448001    22.273513    9382.8072    1900.2005    1360.2732    1780.8181     711.4444    743.63595   -358.87356 
  102500     262.9346   -4221.4276   -3770.7667   -4221.4276            0    3747.7739     18.01094    23.469066    21.784265    9208.2072    5643.1272    2820.9219    2779.2726   -1415.9009    1510.5165    1594.5449 
  103000    269.19271   -4199.3888   -3738.0017   -4199.3888            0    941.20003    18.127765    23.547642    22.171965    9464.4607     328.5752    1460.7949    1034.2299   -320.24495    282.39738    168.65158 
  103500    264.92897   -4215.5129   -3761.4337   -4215.5129            0    740.74329     18.02924    23.394597    22.230667    9376.6021    1573.5913      439.744    208.89453     55.10246    -47.39288    366.56044 
  104000    267.29189   -4211.3237   -3753.1946   -4211.3237            0    1549.4847    18.194461    23.564141     21.86057    9372.4317    473.14068     1138.208    3037.1053    695.78454   -90.945029    225.14659 
  104500    266.61014   -4205.0724   -3748.1117   -4205.0724            0    1828.8201    17.999497    23.457815    22.231123    9386.6216    1944.0958    1142.4009    2399.9634   -115.66138    1750.6684   -262.30347 
  105000    262.33424   -4175.3836   -3725.7517   -4175.3836            0    2099.9391    18.145667    23.245924    22.156778    9346.0123    1154.4344    2437.2643    2708.1185    63.847675   -323.95474    680.45389 
  105500    287.53121   -4205.6624   -3712.8438   -4205.6624            0   -361.92144    18.056146    23.856002    22.022397     9486.091    151.02212   -1427.5513    190.76484    1322.4288   -342.26753    639.82621 
  106000    258.39187   -4223.9672   -3781.0923   -4223.9672            0    2366.9979    18.120064    23.330682    22.088117    9337.8281    1445.2794    1661.0778    3994.6365   -780.15079   -218.38079   -667.16145 
  106500    270.80814   -4211.1695   -3747.0136   -4211.1695            0    1842.5265    18.021334    23.539288    22.125894    9386.0117    3337.6017    2112.3161    77.661617    358.72767    -781.2588    695.65404 
  107000    253.19068   -4208.0262   -3774.0661   -4208.0262            0    724.22212    18.256922    23.493725    22.000182    9436.3864    606.85919    488.86536    1076.9418    843.42412   -161.62859    -409.2813 
  107500    265.87727   -4205.9591   -3750.2545   -4205.9591            0    2055.1182    18.034225       23.395    22.086464    9318.5154    2703.7817    3460.0652    1.5077256    400.54964   -602.26414   -313.05264 
  108000     269.1709   -4209.4623   -3748.1126   -4209.4623            0    1942.8825    17.919156    23.512702    22.177043    9343.8044    1845.7903    3382.5537    600.30336    779.85757    1087.8186    828.56783 
  108500    275.65195   -4202.1688   -3729.7108   -4202.1688            0    788.98447    18.278135    23.474077    21.959562    9422.0216    893.94555    285.68713    1187.3207    1440.5811   -306.12163    54.228957 
  109000    268.34782   -4218.1934   -3758.2544   -4218.1934            0    2575.3591    17.778702    23.572451     22.07485    9251.2956    2235.5441    2305.1247    3185.4086   -808.13543   -509.64233    632.02652 
  109500    264.70282    -4204.971   -3751.2794    -4204.971            0    1756.1466    18.159238    23.394307    22.080185    9380.1655     404.5555    3095.9434    1767.9408    29.100684   -227.83719   -201.57709 
  110000    265.27604   -4207.4092   -3752.7351   -4207.4092            0    2046.1006    18.003723    23.554736    21.961985    9313.4834    1738.9344    2100.0145    2299.3528   -106.84867   -109.23394    718.36201 
  110500    270.78293   -4224.8996   -3760.7869   -4224.8996            0    2867.1859    18.014168    23.354141    21.998418     9254.854    2731.1044    2844.4992    3025.9541   -237.52544   -341.01604   -197.27391 
  111000    270.41758   -4200.5987   -3737.1122   -4200.5987            0    1418.4879    17.996296    23.324195    22.242597    9336.3106     906.9863    3293.2404    55.236997    103.81054    53.654784    -803.7541 
  111500      269.693   -4188.0079   -3725.7634   -4188.0079            0    3235.3918    18.062336    23.470667    21.912168    9289.3364    3903.8478    3335.6833    2466.6441   -195.90244    276.56303   -323.51583 
  112000    259.57229   -4190.7953   -3745.8972   -4190.7953            0    1761.1086    18.193497    23.480559    21.871073    9343.1796    1086.5819    2895.5839    1301.1599    44.470032    393.98118   -349.03061 
  112500    258.24656    -4187.776   -3745.1502    -4187.776            0    1324.5902     17.83776    23.426799    22.309548    9322.7501    2167.8793    1763.9749     41.91636   -215.86181   -197.59655   0.27900812 
  113000    258.86878   -4204.0666   -3760.3744   -4204.0666            0    2893.3646    18.177703    23.395744    21.926369    9324.8655    3013.6252    3647.1476    2019.3212     15.20953   -547.93791    497.58682 
  113500    255.03492   -4207.4031    -3770.282   -4207.4031            0    1798.8545    18.115153    23.635278    21.869651    9363.6369    1925.2315    1398.7046    2072.6273   -1259.4834   -576.02131   -973.96359 
  114000    289.07537   -4204.7689   -3709.3036   -4204.7689            0    3071.8681    17.945144    23.130689     22.42087    9306.5344    3178.6674      4675.17     1361.767    32.970188    98.531424   -219.51765 
  114500    268.73978    -4220.576   -3759.9653    -4220.576            0    1256.9982    18.117361    23.542818    22.040632    9401.0728    942.47295    2151.1216    677.40006    7.3183872    440.72064    922.51968 
  115000    274.39543   -4201.8271   -3731.5227   -4201.8271            0    1146.8158    18.053001    23.549834    22.054471    9376.3515    643.80944    1721.2207    1075.4173    63.864778     304.1086    200.71899 
  115500    276.07941   -4229.7934   -3756.6027   -4229.7934            0    983.54708    18.108693    23.253861    22.326238    9401.5128    430.54147    1719.6871    800.41269    104.48074   -949.27072   -198.45308 
  116000    264.75396    -4219.977   -3766.1978    -4219.977            0    3131.7319    17.960972    23.580817    21.927738    9287.1514    3858.0975    1976.8767    3560.2216     393.1095     257.9368   -186.30761 
  116500    279.01074   -4207.5447   -3729.3298   -4207.5447            0    1784.8358    18.085024    23.503537     21.95702    9333.0954    1625.6971    1311.7206    2417.0897   -311.44995   -356.36609    445.95566 
  117000    264.05409   -4243.7917    -3791.212   -4243.7917            0    1627.6438    17.968359     23.41916    22.290227    9379.8141    1882.6142    1714.0727    1286.2444   -194.18244    633.45655    415.46693 
  117500    250.00736   -4205.5395   -3777.0355   -4205.5395            0    1686.2107    18.023377     23.38078     22.11617    9319.7677    1304.3476    526.99278    3227.2919    131.14989   -64.173479     110.0475 
  118000    270.54269   -4230.6024   -3766.9015   -4230.6024            0    1873.4785    18.187894    23.517162    21.718219     9289.483    1148.5259    963.46295    3508.4468   -374.86317   -172.51519   -562.09651 
  118500    262.80423   -4202.5782   -3752.1408   -4202.5782            0    1465.2913    17.904637    23.314372    22.386752    9345.0224    2056.6709     773.1179    1566.0851    398.21098    659.47341    1265.9835 
  119000    275.97318   -4210.7088   -3737.7002   -4210.7088            0    2237.4379    18.076895    23.299922    22.056354    9289.9214    3673.3667    2678.7712    360.17581   -1191.3897   -1015.5132   -28.746402 
  119500    269.33043   -4224.0993   -3762.4762   -4224.0993            0    1287.3712    18.178077    23.563974    21.879289    9371.9439     1311.216    378.19958    2172.6982   -786.81809   -34.944911    84.648612 
  120000    266.96409   -4219.2006   -3761.6333   -4219.2006            0    4198.8761    17.884773    23.181919    22.129269    9174.8694    3837.2568    4333.5864    4425.7851   -2326.9059    361.82727   -563.31413 
  120500    272.82685   -4192.0907   -3724.4749   -4192.0907            0    2349.9401    18.036858    23.540096    22.081849    9375.7184    3012.8601    2991.2343    1045.7259    1889.5572    306.31968    122.12052 
  121000    270.21082   -4226.3053   -3763.1732   -4226.3053            0    2715.4928    18.027529    23.358707    21.968955    9251.1215    2160.2633    3043.7361    2942.4789    36.683385     195.9924    300.42756 
  121500    263.59069   -4217.5269   -3765.7415   -4217.5269            0    2617.8829    17.940481     23.48939    22.148727    9333.7167       3647.3    2451.2486       1755.1      137.295    710.49367   -117.46026 
  122000    278.42052   -4198.8194   -3721.6161   -4198.8194            0    286.15344    18.092047    23.475483    22.147874    9406.6348    -198.5012    209.15312    847.80841    470.28033   -658.20857    79.660044 
  122500     267.5247    -4168.003   -3709.4748    -4168.003            0    3668.8631    18.156762    23.356325    21.588775    9155.2645    3470.0584    2577.6827    4958.8482    585.97251   -834.19066   -677.88374 
  123000    262.71672   -4237.8666   -3787.5791   -4237.8666            0    1547.5786    17.920112    23.449816    22.219922      9337.33    1172.9151    2232.0386    1237.7823    20.567855   -74.925316   -86.056638 
  123500    268.88939    -4224.885   -3764.0178    -4224.885            0    1840.9025    18.146272    23.322205    21.921093    9277.2496    629.36233    3143.2915    1750.0537   -87.108739   -338.21753   -160.46558 
  124000    282.39871   -4220.0027    -3735.981   -4220.0027            0    1385.7651    18.007838    23.654355    21.939722    9345.5271    1690.1519    891.25018    1575.8931   -755.49771    821.61401    -205.0329 
  124500    258.87603   -4197.2397    -3753.535   -4197.2397            0    2868.2191    18.036602    23.168307    22.081348    9227.2991     3962.744    3210.3473    1431.5661   -564.05938    278.48552     301.2309 
  125000     288.0297   -4193.0766   -3699.4036   -4193.0766            0    1701.9016    18.025844     23.57173    21.925843    9316.2979    1615.3036    1597.8038    1892.5975    451.57518    -717.7429   -472.35299 
  125500    278.93085    -4233.349    -3755.271    -4233.349            0    2043.3051    18.139908    23.332179    21.923436    9278.9536    2635.9326    293.44644    3200.5362    365.89204    760.11492   -620.82252 
  126000    269.60406   -4204.6526   -3742.5604   -4204.6526            0     1675.967    17.998052    23.458495    22.090245    9326.6607    2659.3534      1442.01    926.53777   -662.45171   -113.67888   -246.55906 
  126500    263.20901   -4255.2678   -3804.1366   -4255.2678            0    2461.7643    18.080811    23.515213    21.852913    9291.2934    1931.5229    2016.2312    3437.5388   -50.572118    791.62617    47.828663 
  127000     279.6578   -4212.1584   -3732.8345   -4212.1584            0    3254.9129    18.030199    23.162918     22.08626    9223.9293    4132.9845     2950.259    2681.4951     708.6476    906.74342   -86.651962 
  127500     281.8953   -4226.2669    -3743.108   -4226.2669            0    2252.3874    17.989248    23.458502    22.015859    9290.7102    1559.3234    2699.5108     2498.328    1291.5054    -219.6212   -228.56577 
  128000    268.10042   -4206.8052   -3747.2902   -4206.8052            0    2197.8777    18.112957    23.418652    21.945114    9308.7011    1746.2048    2687.4221    2160.0063   -949.61363     28.17423    80.525526 
  128500    258.74524   -4229.6502   -3786.1697   -4229.6502            0    2216.6924    17.920363    23.374829    22.147494    9277.2629    2808.0384    3043.3487     798.6901   -238.02245   -560.45702    129.76984 
  129000    279.96825   -4193.9943   -3714.1383   -4193.9943            0    1483.7742    18.012722    23.542062    22.030531    9342.1923    1289.7514    89.205027    3072.3664   -456.73953    709.63288    552.46337 
  129500    262.47902   -4200.8456   -3750.9655   -4200.8456            0    2394.0489    18.230419    23.523355    21.681393    9297.8621    1098.8257    1832.1941    4251.1269   -19.702724      143.779     838.8635 
  130000    255.85736   -4216.0651   -3777.5343   -4216.0651            0    2324.5202    17.876085    23.396376    22.251537    9306.3854    2727.8433    3028.2847    1217.4326    125.32837     -798.172      -493.88 
  130500    276.14608   -4211.8491   -3738.5442   -4211.8491            0    2042.5914    18.106857    23.328462    22.092717    9332.0769     781.5753    4050.8897    1295.3092   -1051.5042    369.61538    435.75453 
  131000    267.37502   -4241.6065   -3783.3348   -4241.6065            0    2775.8005    18.113057    23.550734    21.733721    9271.0792    2673.2508    2018.3488     3635.802   -1148.4036    -310.3633   -100.98056 
  131500    271.93239   -4217.8433   -3751.7604   -4217.8433            0    966.03153    17.984758    23.267085    22.538345    9431.2356    1649.8546    503.85446     744.3855   -747.39155    1138.3418    269.27956 
  132000    274.58974   -4185.2181   -3714.5807   -4185.2181            0    2616.2725    17.999829       23.431    22.003474    9280.0534    3444.0421    1603.2122    2801.5631    566.10208   -971.21359   -649.25356 
  132500    276.95261   -4196.2456   -3721.5584   -4196.2456            0    2054.7788     18.21467    23.563566    21.758078    9338.6231    751.11989    4338.6278    1074.5886    647.76162   -464.14928    6.1595281 
  133000     276.9322   -4241.3387   -3766.6864   -4241.3387            0    1473.2097    17.958528    23.419335    22.309696    9382.9403    3169.5816     1961.434   -711.38642   -218.07522   -498.22816   -122.36206 
  133500    273.80153   -4194.3676   -3725.0811   -4194.3676            0    3178.6837    17.971856    23.463519    21.984477      9270.48    2439.3226    2607.3172    4489.4112    44.342244   -307.27393    143.82834 
  134000    271.47495   -4244.1687   -3778.8699   -4244.1687            0    2690.6946    18.123663    23.466051    21.883352    9306.7884    3586.5636    2435.8209    2049.6994    112.27868     -827.944    1149.8668 
  134500    266.22079   -4204.8244   -3748.5311   -4204.8244            0     2042.875    17.858993    23.341163    22.522654    9388.5608    2517.0424     2480.433    1131.1497    849.79209    193.64596   -484.75469 
  135000    265.54184   -4246.3454   -3791.2158   -4246.3454            0    1756.6427    18.188838      23.4605    21.869567    9332.1649    1660.9096    1787.6194     1821.399    1663.4884   -509.23665    -174.8826 
  135500    267.23078   -4225.5923   -3767.5679   -4225.5923            0    2246.5501    18.061801    23.570665    21.833426    9295.1154    2432.7143    1245.9104    3061.0257   -611.97359    341.95745   -688.44554 
  136000    265.21396   -4198.1796    -3743.612   -4198.1796            0    2881.1563    17.930915    23.307445     22.07662    9226.3454    4922.5832    3514.2595    206.62625   -1300.0182   -145.62167    620.49661 
  136500    285.25834   -4224.6716   -3735.7486   -4224.6716            0    566.36596    18.189414    23.510313    22.086831    9445.1861    419.56466   -383.39677      1662.93   -880.91064    559.04068     233.8017 
  137000    251.91653   -4200.7108   -3768.9345   -4200.7108            0    2460.6779    18.012384     23.45465    21.943892    9270.7278    1612.1994    2853.4385    2916.3958   -772.00095    763.87422    512.82086 
  137500    292.78948   -4184.4641   -3682.6329   -4184.4641            0    3090.5146     18.04704    23.223909    22.134943    9277.2594    2406.5895     4580.879    2284.0753   -810.09702    291.41729    166.91787 
  138000    275.99927   -4219.6785   -3746.6252   -4219.6785            0    1248.4517    18.079999     23.45269    22.007523    9331.7309    659.09521    2409.2381    677.02179   -559.37491    386.63753    577.62334 
  138500    275.89119   -4209.3828   -3736.5148   -4209.3828            0    2463.4646    18.011392    23.599423    21.905696    9311.2015    2082.7704     3088.019    2219.6044    1524.5425   -118.23937   -1361.8878 
  139000    252.29658   -4236.7517    -3804.324   -4236.7517            0    2891.0812    18.106064    23.132378    22.186391    9292.4668    2089.9215    3669.3587    2913.9636   -1104.6695   -502.46219    236.59167 
  139500    287.23821   -4220.2705   -3727.9541   -4220.2705            0    3638.4948    17.889318    23.583887    21.966997    9267.8685    3456.8594    2761.3564    4697.2686     285.2581   -424.49313    858.39462 
  140000    273.53251   -4223.6788   -3754.8534   -4223.6788            0    1780.1319    18.233991    23.331477    22.078367    9392.7099    873.47714    1616.8968    2850.0217    780.87142   -542.47308    346.79415 
  140500    284.83887   -4213.4059   -3725.2018   -4213.4059            0    1583.4522    17.991188    23.593929    22.114639    9387.2841    1911.9093    1651.0549    1187.3923   -185.35305    239.34212    314.82505 
  141000    258.75563   -4230.5795   -3787.0812   -4230.5795            0    2016.6072    18.108094    23.415647    22.004351    9330.1249    1191.0192    641.89191    4216.9104   -416.94814    550.87093    1342.0269 
  141500    260.44214   -4211.3684   -3764.9795   -4211.3684            0    506.20883    18.258349    23.362701    22.122715    9436.7618   -37.201555    577.71022    978.11783    107.66195    156.96774   -202.87169 
  142000     263.9561   -4223.3033   -3770.8916   -4223.3033            0    2927.6131    17.881997    23.728039    21.998089    9333.8932    3861.7796    1378.4734    3542.5863    196.26503   -267.54851    773.22594 
  142500    281.61916   -4208.5841   -3725.8985   -4208.5841            0    2821.5513    18.165472    23.294002    21.986983    9303.7154    2066.9774    2011.4889    4386.1876   -73.677693    163.33466   -208.27192 
  143000    263.96472   -4222.6147   -3770.1882   -4222.6147            0    2224.6161    18.111666    23.548539    21.960139    9366.0707    2067.6537    392.17839    4214.0161    287.95499   -444.87289    79.515278 
  143500     275.2292   -4233.5322   -3761.7987   -4233.5322            0    3793.5252    17.914209    23.487936    21.959612    9239.8976    4887.5193    4248.6803     2244.376   -1313.6942    843.22874   -354.53722 
  144000    261.13613   -4211.1032   -3763.5248   -4211.1032            0    1615.1487    18.187996    23.381028    22.191066    9436.8405    535.07066    2827.8865    1482.4891   -980.59424   -594.53099   -72.312048 
  144500    262.65999   -4218.9018   -3768.7115   -4218.9018            0    3784.0625    17.938778    23.563115    21.922522    9266.5069    2953.3154    4184.1764    4214.6956    612.32486    652.14796   -1118.0505 
  145000    288.65273   -4218.0068   -3723.2659   -4218.0068            0    1244.8454    18.314849    23.184492    22.160173    9409.6632     1537.039    2884.4478   -686.95072   -98.974956    410.72116    469.80157 
  145500    275.42032   -4197.4953   -3725.4343   -4197.4953            0     2668.749     17.85065     23.58256    22.124571    9313.6483     2432.964    2452.8361    3120.4467    29.400559   -789.51752   -501.71603 
  146000    264.53385   -4222.4101   -3769.0082   -4222.4101            0    1457.6111    18.298092    23.409787    22.011561    9428.7497    394.26722    1765.4195    2213.1467   -589.12283    388.22552   -108.61203 
  146500    275.83733   -4224.1556   -3751.3799   -4224.1556            0    1737.7616    18.109701    23.470113    22.095427     9391.368    861.11056    1707.9393    2644.2348   -238.30827    215.91508    417.54143 
  147000    262.01059   -4228.2159   -3779.1387   -4228.2159            0    2707.9502    17.948373    23.325334     22.17294    9282.7414    4592.6182    2727.5571    803.67526   -125.62176   -306.40423    518.77111 
  147500    282.33816   -4236.1537   -3752.2357   -4236.1537            0    1278.3041     18.23577    23.586705    21.833316    9390.9838    1495.7861    1017.7771    1321.3491    795.72841    -823.2154    174.06222 
  148000    258.59671   -4235.4599   -3792.2339   -4235.4599            0    1399.5115    17.993359    23.424099    22.249417    9377.6447    610.03722    1894.9962     1693.501    22.197028    -589.5044   -348.53111 
  148500    267.61148    -4221.527   -3762.8501    -4221.527            0    2613.8881    17.971702    23.307219    22.262511    9325.1063    3365.7281    3632.6085    843.32759   -929.02517   -837.40752   -540.78206 
  149000    280.00965   -4192.3006   -3712.3737   -4192.3006            0    1928.0723    18.146118     23.63812     21.78507    9344.4907    938.04866     2015.129    2831.0393    531.88074    638.06152    289.03453 
  149500    269.28543   -4192.4845   -3730.9385   -4192.4845            0    2289.0955    18.019801    23.340475    22.128499    9307.0413    1359.6308    2607.8679     2899.788     1140.237    108.61927    730.92519 
  150000      272.291   -4233.0368   -3766.3394   -4233.0368            0    916.13572    18.172113    23.467124    22.109144    9428.3832    376.04203    2686.3036   -313.93851   -280.44708     353.3331    354.03466 
  150500    277.01811   -4232.2403   -3757.4408   -4232.2403            0    1501.0144    17.944115    23.739879    21.970598    9359.2792    2401.9175   -771.69543    2872.8212   -29.036101   -591.26257   -675.02502 
  151000    281.50975   -4206.7108   -3724.2127   -4206.7108            0    1678.9645    18.212035    23.046907    22.181238     9310.155    1929.4473    2456.5806    650.86558    187.70369   -1265.9881   -274.07112 
  151500    264.08027   -4201.7551   -3749.1305   -4201.7551            0    2322.7696    17.942449    23.566866    22.013645      9308.41    1867.5887    2877.5685    2223.1516   -862.11012    -243.0382   -12.890873 
  152000    267.14053   -4240.6076   -3782.7379   -4240.6076            0    2065.1247    18.188336    23.309086    21.989728    9322.6215    3448.9996    1802.2213    944.15315     807.0868      190.008   -326.32851 
  152500    266.10631   -4232.5736   -3776.4765   -4232.5736            0    1471.7838    17.923168    23.432171    22.266673    9351.5296    1577.5937    1647.8216    1189.9361   -781.49718    495.34633    224.67284 
  153000    281.22674   -4225.5724   -3743.5594   -4225.5724            0    1446.1693     18.11322    23.576943    22.006076    9397.7905    1539.9473    1262.0511    1536.5095    771.84119   -472.94116   -195.99851 
  153500    268.67093   -4194.8069   -3734.3141   -4194.8069            0     2399.321    18.070179    23.446484     22.01168    9325.9563    2764.9402    1859.7423    2573.2806    128.00701    344.72307   -520.31703 
  154000    254.26291   -4216.0054   -3780.2075   -4216.0054            0    2188.5089    17.926431     23.54168      22.0987    9326.0557    2199.4688     1412.086     2953.972    1738.5648   -323.05548    407.39109 
  154500    264.40187   -4247.3869   -3794.2111   -4247.3869            0     2062.549    18.285015     23.19588     21.94945    9309.5743    1559.6174    1886.3394    2741.6904   -250.42568   -276.83093    81.824688 
  155000    272.40633   -4230.8242   -3763.9291   -4230.8242            0    2950.9953     17.72463    23.701769    22.131267    9297.4577    4832.4213    2972.9415     1047.623   -268.37581   -16.146256    327.26891 
  155500    271.43034   -4229.8232   -3764.6009   -4229.8232            0    1401.6035     18.24036    23.205282    22.090816    9350.4392    1164.2194    1707.4001     1333.191     314.2333   -208.76106   -125.29851 
  156000    265.53004   -4253.6082   -3798.4988   -4253.6082            0    4101.2758    17.847625    23.500414    21.989423    9222.9486    5011.9324    2287.6285    5004.2664   -79.262347   -842.23144   -52.307822 
  156500    252.46339   -4201.6765   -3768.9629   -4201.6765            0    1142.0044    18.112012    23.498123    22.220142    9456.8543    1288.1661    1023.3036    1114.5435   -1181.7763    312.73087    -236.5679 
  157000    254.11445   -4207.9771   -3772.4336   -4207.9771            0    2036.0659    18.116601    23.437672      22.0277    9353.2027    1246.9702    2627.0677    2234.1597    73.071206    145.36758   -38.172595 
  157500    259.21936   -4215.5092   -3771.2161   -4215.5092            0    958.66259    17.940065    23.661551    22.141754    9398.9478    1209.2316     697.6346    969.12161    5.4878058    420.41464   -138.77676 
  158000    274.80224   -4236.4181   -3765.4164   -4236.4181            0    4091.1392    18.286879    22.945482    22.051789    9252.9582    4466.9525    4948.2307    2858.2345    1463.1101   -109.55249    173.82561 
  158500     274.7892   -4235.8638   -3764.8845   -4235.8638            0    2679.2075    17.851207    23.749925    21.899905    9284.7894     2889.952    2840.0968    2307.5736   -1084.8073   -35.429545    865.88514 
  159000    265.65694    -4211.899   -3756.5721    -4211.899            0    -145.4903    18.284086    23.353535    22.241997    9497.2893   -1955.5781   -517.85393    2036.9612   -300.81639    505.40049    354.86971 
  159500    263.70171   -4207.2827    -3755.307   -4207.2827            0    1297.7394    18.036683    23.566209    22.106871    9396.6633    672.16928    1824.9653    1396.0836    105.54676   -395.14553    364.59143 
  160000    276.35742   -4197.6258   -3723.9587   -4197.6258            0    2583.8183    18.133977    23.507832     21.90793     9339.142    3046.9269    2143.4202    2561.1077   -612.67797    576.85875   -149.39204 
  160500    274.34262    -4219.929   -3749.7152    -4219.929            0    435.99783    18.096522    23.287068    22.452253    9461.7147    1740.5672    1547.1577   -1979.7314    -719.5522     6.633198    75.075655 
  161000    263.35659   -4239.0535   -3787.6693   -4239.0535            0    2963.7136    17.961425    23.595339    21.856548    9262.9342    3305.8069    3680.4291    1904.9049   -139.55447   -689.54067    895.36721 
  161500    261.00281   -4207.0524   -3759.7025   -4207.0524            0    1665.2532    18.097466    23.429999    22.100825    9371.2715    2619.6728    1961.9817    414.10499    772.76908   -102.58041    496.08583 
  162000    277.53688   -4240.6636   -3764.9749   -4240.6636            0    2433.3511    17.967355    23.319157    22.078586    9250.5645    2872.4987    2450.4203    1977.1343    40.573533    226.98162   -259.29895 
  162500    262.03686   -4208.2487   -3759.1265   -4208.2487            0    692.51378    18.200187    23.521802    22.073047    9449.4978     1418.159    404.63903    254.74326    445.43626   -733.52216   -236.21349 
  163000    273.01244   -4221.6051   -3753.6711   -4221.6051            0    1136.9497    17.937762    23.474426    22.103094    9307.1414    908.44325    766.66783    1735.7379   -63.131301   -672.51172    642.67764 
  163500    250.35663   -4234.0781   -3804.9754   -4234.0781            0    2239.2566    18.090753     23.45771    22.003543    9337.5912    1360.0414    2803.6408    2554.0875   -871.83505    1145.0765   -696.24596 
  164000    269.58104   -4226.0295   -3763.9769   -4226.0295            0    1660.1595    18.069727     23.59092     22.09524    9418.7919    936.61672    2233.4383    1810.4236   -537.32281    350.10047   -39.508023 
  164500    279.16509   -4216.4921   -3738.0127   -4216.4921            0     1484.143    18.084987    23.211332    22.192217    9315.7742    1845.9973    2321.3047    285.12712   -66.374094    -750.7878   -622.35227 
  165000    274.67501   -4228.5823   -3757.7988   -4228.5823            0    3497.8687    17.932151    23.629145    21.998184    9321.1011    3105.1688    3052.7389    4335.6984    650.84017   -16.452943    1035.0629 
  165500    256.88679   -4187.7138   -3747.4186   -4187.7138            0    360.96172    18.266734    23.515681    21.919213    9415.5012   -1122.4616    694.05753    1511.2892    1334.6102    632.43505    31.766358 
  166000    268.29917   -4188.7325   -3728.8769   -4188.7325            0    2308.6092    17.913305     23.34328      22.2067    9285.8491    2537.9204    3989.2788    398.62844     381.9261    153.16535    915.54678 
  166500    257.97596   -4223.7095   -3781.5475   -4223.7095            0    1930.5583    18.014154    23.519322    22.030134    9333.7422    2086.2532    2363.4803    1341.9412    693.91459    107.78162    281.62763 
  167000    254.63543   -4226.1042   -3789.6677   -4226.1042            0    835.81938    18.273828    23.430549     21.96977    9406.7049    1154.3827    711.16172     641.9137   -95.307457    500.21819   -72.775397 
  167500    259.34613   -4214.6449   -3770.1345   -4214.6449            0    2179.1385    17.699278     23.57991     22.26264    9291.2547    2016.9214    4573.9359   -53.441894   -933.54809   -24.791891    1033.2931 
  168000     273.6237   -4180.0677    -3711.086   -4180.0677            0    1594.1064    18.241517    23.334245    22.051004    9386.0541    1858.3656    1422.0117    1501.9419    97.449425    957.75482    881.09803 
  168500    274.70476   -4217.3914   -3746.5568   -4217.3914            0    2715.9584    17.964595    23.686525    21.884417     9312.231    2407.5998    2638.8433    3101.4321   -322.92022    251.65445    -633.4774 
  169000    283.17529   -4204.0831   -3718.7304   -4204.0831            0    2570.5404    18.114508    23.265523    22.209893    9360.2151    2234.1512    3217.2814    2260.1887    481.37316    -785.8752    663.65991 
  169500    258.42075   -4211.9142   -3768.9899   -4211.9142            0    3053.6079    17.983271     23.42609    22.018691    9275.9846    2728.4438    3121.7418    3310.6382   -535.60037    297.24359   -1016.6514 
  170000     274.3802   -4213.3773    -3743.099   -4213.3773            0    3542.3604    18.053359    23.301338    21.986888    9249.1674      2952.53    3551.0757    4123.4755   -611.30469   -142.14987    180.44082 
  170500    269.64196   -4258.8617   -3796.7046   -4258.8617            0    1101.9473    18.142878    23.438176    22.181277    9432.2766    89.705962    2102.0178    1114.1182   -767.35532    665.17809    340.63412 
  171000    274.23944   -4230.1118   -3760.0747   -4230.1118            0    1511.5481    18.038993    23.492432    22.009527    9327.1929    1838.2797    2056.3512    640.01319    22.420132   -679.32365    623.19389 
  171500    255.21769   -4201.7348   -3764.3004   -4201.7348            0    843.42245    18.144285    23.458831    22.159092    9431.8784    888.22845    395.91139    1246.1275   -1436.3324   -438.79803   -55.088936 
  172000     280.2269   -4243.0517   -3762.7524   -4243.0517            0    2331.4275     17.96014    23.475031    22.135979    9332.8568    1969.9852    1499.4572    3524.8401    286.41335    422.02402   -160.72966 
[...]
  960500    262.72527   -4197.4428   -3747.1407   -4197.4428            0    1644.3229    18.107636    23.236896    22.081409      9291.09    2004.7938     932.9312    1995.2438     247.7298   -169.64974    260.00086 
  961000    267.93829   -4222.7942   -3763.5571   -4222.7942            0    2613.9618    17.806287    23.622492    22.050605    9275.1213    4367.8351    1529.3026    1944.7477    113.10826    710.87538    338.33164 
  961500    265.38026   -4212.4128   -3757.5601   -4212.4128            0    382.12658     18.30256    23.321184     22.17638    9465.7078    472.58695    449.74605    224.04675   -954.18113    274.75596    316.94803 
  962000    272.81174   -4198.8244   -3731.2344   -4198.8244            0    3224.1552     17.94661    23.438627    21.940185    9229.0048    3551.4028    3327.3762    2793.6864   -1022.8806    484.83516   -24.812154 
  962500    271.40777   -4217.0984   -3751.9148   -4217.0984            0    1999.4515    18.057067    23.335413    22.084788    9305.8476    988.82576    2541.7034    2467.8254   -486.88936    277.77458    162.93565 
  963000    261.24578   -4215.6504    -3767.884   -4215.6504            0    2332.3513    17.957329    23.313923    22.055181    9233.5289    1219.2375    4266.2645    1511.5521   -339.67371   -436.09409   -134.34452 
  963500    284.99693   -4232.6506   -3744.1756   -4232.6506            0    218.77377    18.113736    23.527609    22.090866    9414.5288   -604.91439   -89.767826    1351.0035    -373.3005    -321.7542    -460.7155 
  964000    278.70728   -4216.4392   -3738.7444   -4216.4392            0    3488.6554    17.990048    23.368458    22.033506    9262.8788    4962.0316    2046.8215    3457.1132    1781.2623    78.203643   -606.35336 
  964500    277.83429   -4197.6222   -3721.4238   -4197.6222            0    1480.1424     18.06505    23.414526    22.034094    9320.0821    2186.2645    1501.9155    752.24735   -165.33668   -456.98825    60.463298 
  965000    274.44389    -4195.467   -3725.0796    -4195.467            0    321.22563    17.975579    23.595937    22.224696    9426.6188    1140.0752   -979.15581    802.75751   -979.86278   -52.337302   -5.9259305 
  965500    265.74658   -4163.7654   -3708.2849   -4163.7654            0    3509.6501    18.242846    23.307252    21.737341    9242.5132    2434.7435    3607.7082    4486.4985     297.8593    562.16667    726.83834 
  966000    270.59647   -4212.8381    -3749.045   -4212.8381            0    472.36133    17.867472    23.716916    22.307113    9452.8918    2539.6545   -1206.4276    83.857105    -367.7724    259.14941   -796.80517 
  966500    277.29073   -4172.8894   -3697.6225   -4172.8894            0    2545.3848    18.077177    23.259273    22.103116    9293.5203    2926.7688    2313.2798    2396.1058    182.93813   -195.98509    531.13553 
  967000    261.51926    -4222.976   -3774.7409    -4222.976            0    2131.2823    18.099389    23.502821    22.038001     9374.673    1739.3797     2549.075    2105.3921    318.91722    487.05033   -563.48127 
  967500    260.73576    -4223.677   -3776.7848    -4223.677            0     2015.068    17.956737    23.459385    22.017188    9274.8289    1916.8434    3736.3689    391.99166   -248.55537    51.949619    470.92254 
  968000    270.08747   -4200.4139   -3737.4932   -4200.4139            0    823.97876    18.300337    23.333355    22.019866    9402.6648    587.90421    2232.1798    -348.1477    8.5104991    286.08534   -229.03514 
  968500    250.09015    -4246.471    -3817.825    -4246.471            0    1735.5549    17.879197    23.648144    22.116107    9350.9075     2511.369    1719.1436    976.15206    252.53051   -99.387999    61.729172 
  969000    277.55387   -4207.0099    -3731.292   -4207.0099            0    2883.7956    18.228362     23.23441    21.962868    9301.8286    2167.0521    2273.1216    4211.2131      1185.81    273.83801    762.81017 
  969500    275.78773   -4224.7116   -3752.0208   -4224.7116            0    1432.6329    17.864709    23.784433    22.119685    9398.6979    2495.9495    264.17734    1537.7717    256.65679    -480.7548   -1050.8795 
  970000    272.18149   -4164.2976   -3697.7879   -4164.2976            0    1593.7842    18.186665    23.124429    22.315652    9384.9869    2517.2806    1407.0588    857.01339   -1175.5133    70.801539    936.48431 
  970500    252.44882   -4213.0129   -3780.3243   -4213.0129            0    1998.4456    18.097642     23.61767    21.965268    9388.4855    3198.2392    557.32929    2239.7684   -325.84755   -405.51446   -461.68495 
  971000    266.57403   -4224.2255   -3767.3267   -4224.2255            0    4115.3443    18.045279    23.518568    21.979465    9328.0658    4545.9987    4061.9144    3738.1197    693.95876   -3.4565596   -187.51733 
  971500    277.44058   -4209.3699   -3733.8462   -4209.3699            0    1687.2121    18.107744    23.196592    22.364972    9394.1374    1616.7198    1628.3764      1816.54    420.09914   -124.22011    266.65133 
  972000    282.78618   -4203.1399   -3718.4541   -4203.1399            0    2729.3204    17.996803    23.659951    21.948445    9345.7244    1343.4769    3623.5017    3220.9826    301.27294    623.47026   -83.937557 
  972500    258.46279   -4205.5289   -3762.5325   -4205.5289            0    1516.4362    18.186201      23.3555    22.019263    9352.6335    725.49169     1564.145     2259.672   -271.74598    1038.8654   -1048.6816 
  973000    278.65089   -4226.2843   -3748.6862   -4226.2843            0      3374.84    17.859437    23.359506    22.195757    9259.7953    5038.9856    3262.3224    1823.2119   -1033.6757    -178.9395   -848.76162 
  973500    273.14193   -4190.1187   -3721.9627   -4190.1187            0    1480.4517    18.087409     23.63637    21.964799    9390.4058    1554.8266    1372.7079    1513.8205    768.83028    30.080589    104.01307 
  974000    268.38733   -4226.9446   -3766.9379   -4226.9446            0    999.02867    18.169086    23.403181    22.150143    9418.5599    673.71061    949.26001    1374.1154    432.80008    155.70033   -1229.0196 
  974500    262.64979   -4216.7773   -3766.6045   -4216.7773            0    3107.7658    17.857076    23.718744     21.81366    9239.1191    3399.7275    2632.5741    3290.9959   -358.99035     1184.525    -342.3122 
  975000     265.2026   -4184.9361   -3730.3879   -4184.9361            0    1412.2519    18.206973    23.278237    22.149708    9387.6271    650.86761    1425.9771    2159.9111    556.34077   -613.06731   -1098.0214 
  975500    260.79658   -4226.7219   -3779.7255   -4226.7219            0    1703.8494    17.988347    23.441869    22.153179    9341.5635    1507.6192    3725.7172   -121.78811   -360.75803    -1105.982   -383.09389 
  976000    258.94974   -4192.4066   -3748.5757   -4192.4066            0    2311.8486     17.98348    23.509933    22.023741    9311.4265    2243.1668    2159.6649    2532.7141    681.76572    795.00911   -504.67834 
  976500    273.02476   -4217.0316   -3749.0765   -4217.0316            0    768.86193     18.35072    23.301487    22.003105    9408.5074   -454.93712    100.11119    2661.4117    157.68558   -733.20874   -424.80428 
  977000    284.98755   -4184.5818   -3696.1229   -4184.5818            0    2810.0509    17.672138     23.62452    22.252709    9290.4121    3987.9066    2628.1268    1814.1192    797.45744   -280.35728    91.788096 
  977500    256.01014   -4196.8466    -3758.054   -4196.8466            0    2392.9496    18.274028    23.287502    21.916776    9326.8257    1509.6134    4049.2812    1619.9543    1456.5133   -655.85217    345.35679 
  978000    299.86172   -4205.6949   -3691.7422   -4205.6949            0    217.26383     18.04264    23.651332    22.059483     9413.498    1125.1718    166.03343   -639.41377   -111.28501    -266.3134   -608.20316 
  978500    276.95508   -4215.4941   -3740.8026   -4215.4941            0    3637.8341    18.024593    23.183718    22.085285    9228.9346    4013.8483    4734.4463    2165.2076   -884.14448   -505.43874    307.63854 
  979000    256.71274   -4224.8239   -3784.8271   -4224.8239            0    928.65074    18.066436    23.645519    21.986467    9392.4046    1324.6781    1441.3441    19.930036   -1101.0971    -507.9166    -9.294518 
  979500    263.74746   -4212.8481    -3760.794   -4212.8481            0    1485.5368    18.105049    23.350245    22.165534     9370.642    370.28726    2926.5233    1159.7999    850.65165    269.32743     471.0475 
  980000    267.12113   -4198.2109   -3740.3744   -4198.2109            0    1657.3424    18.046905    23.543155    22.074165    9378.8951    1569.8214    1455.1895    1947.0163    283.59442   -336.17542   -243.27095 
  980500    255.52241   -4244.7663   -3806.8096   -4244.7663            0    218.80414    18.187495    23.557454    21.939728    9400.1001   -1059.0588    99.281836    1616.1894    586.80832    922.51053    840.47492 
  981000    273.35572   -4206.0885   -3737.5662   -4206.0885            0    1789.1408    18.075163    23.230428    22.274971    9353.1219    1507.4863    2683.4903    1176.4457    18.687078   -892.51878    201.98443 
  981500    256.11234   -4225.7322   -3786.7644   -4225.7322            0    2508.5544    17.915742    23.715276    22.018954    9355.3421    3271.1424    2311.7235    1942.7973   -8.5142281   -271.72628   -486.46612 
  982000    276.31436   -4192.1168   -3718.5235   -4192.1168            0    2205.7968    18.236329    23.217434    21.923923    9282.6056    1301.4974    2641.9639    2673.9292   -141.99937   -57.611748   -46.351816 
  982500    276.74895   -4195.2451   -3720.9069   -4195.2451            0    3055.5605    17.893944    23.614769    22.113122    9344.1508    2661.8106    3486.7892    3018.0817   -329.21165   -82.245373   -382.52609 
  983000    274.03877   -4213.4278   -3743.7347   -4213.4278            0    1698.1044    18.179337    23.265715     22.12808    9359.1883    912.59315     2891.846     1289.874     185.5299    777.10038    57.919058 
  983500    262.20039   -4225.3279   -3775.9254   -4225.3279            0    2393.8644    17.938229    23.716339     21.89729    9315.7451    2441.4915    1443.7298    3296.3718   -452.81388    211.05767    15.087875 
  984000    257.69518   -4229.6285   -3787.9478   -4229.6285            0    514.18447    18.081212     23.46899    22.246078    9440.0739    1381.4243   -1106.1158    1267.2449    1369.2082    -42.58877   -16.847018 
  984500    264.05967   -4222.0177   -3769.4285   -4222.0177            0    1934.8749    18.097574    23.391004    22.041511    9330.6218    1419.8289    2048.1016    2336.6943   -885.87649   -600.10839   -404.21645 
  985000    279.99215   -4224.1192   -3744.2222   -4224.1192            0    3148.4823    17.911055    23.581054    22.078659    9325.1772    4099.0354    3114.3232    2232.0883   -690.68422   -111.99628   -39.305246 
  985500    256.97794   -4224.9199   -3784.4685   -4224.9199            0    2025.7212    18.258949    23.217955    22.119788    9377.3622    741.21934    2864.1916    2471.7525     -894.892   -871.83307   -562.91332 
  986000    271.98313   -4177.9363   -3711.7666   -4177.9363            0    3555.5417     17.96715    23.727029    21.848306     9314.088    3956.5666    2932.2652    3777.7931   -139.90104   -1475.9021    235.07218 
  986500    270.83978   -4219.8946   -3755.6845   -4219.8946            0    1764.2906     18.11186    23.405572    22.233665    9425.2605    1893.9312    1973.1396    1425.8009    503.63723    364.40621   -26.826604 
  987000    263.23217   -4196.1548   -3744.9839   -4196.1548            0    922.06258    18.071299    23.528432    22.178276    9429.9666    1563.7185    866.77112    335.69813   -561.48826   -3.1260474    196.11597 
  987500    257.54387   -4194.7263   -3753.3049   -4194.7263            0    1799.2238    18.076581    23.602814    21.851518    9323.1291    2412.6789    2331.9268    653.06553    888.98009   -503.39025   -493.01108 
  988000    291.41423   -4202.5321    -3703.058   -4202.5321            0    1692.9933    17.971653    23.258861    22.411951    9368.1993    3116.0085    2478.6817   -515.71029    435.72167     -148.304   -331.35568 
  988500    285.04635   -4216.5799   -3728.0202   -4216.5799            0    2834.2077     18.10454    23.630432    21.867321    9355.2362    3074.8573    1972.4052    3455.3607    75.198964   -386.59161   -154.24443 
  989000    270.79895   -4202.4282   -3738.2881   -4202.4282            0    1924.2698    18.108105    23.456204    22.087163    9381.4649    1372.9803    1596.2393      2803.59   -341.57964   -678.53568   -403.86954 
  989500    279.08784   -4230.8971   -3752.5501   -4230.8971            0    1564.6115    18.041535    23.509066    22.201814    9416.6692    1137.7203    1116.8463    2439.2677   -692.05411   -765.97938    501.60406 
  990000     281.9411   -4203.7543   -3720.5169   -4203.7543            0    1912.9101     18.16925    23.352833     22.18624    9413.6987    2492.7558    799.27879    2446.6956    279.99444    616.47272    178.19597 
  990500    262.99254   -4236.4537   -3785.6935   -4236.4537            0    3388.9406    17.972984    23.686834    21.781671    9272.9607    3155.3925    4296.1928    2715.2365    -76.10505   -727.38235    974.97426 
  991000    268.35023   -4227.6388   -3767.6957   -4227.6388            0    2467.0056    18.094819    23.248657     22.25434    9361.9615    3044.1736    3770.0214    586.82196   -1377.9451   -68.754826   -239.66039 
  991500    275.75937   -4214.3502   -3741.7081   -4214.3502            0    2706.9848    18.126556    23.448436    21.933922    9322.7805    2179.2482    3633.1822    2308.5241    -371.8116   -598.45216    5.4823945 
  992000      270.112   -4199.2389   -3736.2762   -4199.2389            0    2599.0018    18.045953     23.56183    21.960273    9337.4129    4025.7191    1991.3891     1779.897    576.36071    685.70009    153.94817 
  992500    264.77468   -4207.0381   -3753.2234   -4207.0381            0    988.34467    18.239315    23.228436    22.216505    9412.4832    639.98272    1704.4732    620.57813    154.41006   -541.88644    410.38471 
  993000    271.09967   -4232.1828   -3767.5272   -4232.1828            0    2420.5005    17.863484    23.965321    21.759777    9315.4504    3942.6641    1955.6047    1363.2327    719.26883    138.10266    710.72744 
  993500     273.6151   -4194.1259    -3725.159   -4194.1259            0    3195.9735    18.132477     23.20937    22.120097    9309.0962    2158.5007    4857.4291    2571.9908   -6.8235471    939.04316   -228.96569 
  994000     267.2115   -4201.9751   -3743.9838   -4201.9751            0    3208.0616    17.949046     23.43933    22.180176    9331.5016    2806.5219      2071.66    4746.0027    288.83763    1089.1936    1249.1859 
  994500    259.07766   -4215.3592   -3771.3089   -4215.3592            0    967.16168     18.21031    23.621299    21.986908    9457.6945    1509.0294   -579.81226    1972.2679   -636.27736    631.43546   -424.08699 
  995000    252.13063   -4231.0038   -3798.8606   -4231.0038            0    1472.4086    18.135605    23.420607    22.059564    9369.7309     1738.409    557.08124    2121.7356     282.5975   -117.29259    707.03397 
  995500    274.18069    -4189.941   -3720.0047    -4189.941            0    2937.5178    17.890342    23.614618    22.035792    9309.5403     4799.661     2535.977    1476.9153    120.89835   -317.36085   -154.03301 
  996000    273.47843   -4232.0591   -3763.3264   -4232.0591            0    2827.7654    18.268528    22.934878    22.073486    9248.4919    1824.4069    5199.3837    1459.5055    902.40578    602.28173    573.31288 
  996500    270.82177   -4213.7665   -3749.5872   -4213.7665            0    2500.1917      17.8899    23.821643    21.905986    9335.6043    1720.0887    2020.5056    3759.9809    502.53557    435.56425    443.61834 
  997000    256.98896   -4217.1754   -3776.7051   -4217.1754            0    2094.3502    18.077298    23.243836    22.154186     9308.873    1150.0594    2419.8708    2713.1203     219.7884   -118.72253    29.020217 
  997500    265.39952    -4192.039   -3737.1533    -4192.039            0    2302.6712    18.058189    23.502673     22.18569    9415.9559    1791.5937    2678.7944    2437.6254    92.009686   -306.79698    1057.4553 
  998000    273.87434   -4228.1088   -3758.6975   -4228.1088            0    2992.3371    18.112698    23.645225    21.716219    9300.5969    2637.8996    3482.3026    2856.8092    48.372794    251.99206    298.71564 
  998500      255.738    -4190.655   -3752.3288    -4190.655            0    2949.3873    18.047066    23.230261    22.294459    9346.6856    3302.5235    4140.4425    1405.1959   -505.45681    284.24654     239.0903 
  999000    261.58043   -4215.3614   -3767.0215   -4215.3614            0    982.39641    17.963681    23.568425    22.091904    9353.1747    945.66284   -234.79383    2236.3202    846.00314    273.95596    836.68705 
  999500    263.03174   -4208.0259   -3757.1985   -4208.0259            0    2922.8518     18.21928    23.276263    21.853335    9267.4916    2770.1729    2673.8265    3324.5559   -1052.3326    -495.1221   -259.83294 
 1000000    261.34992   -4232.7589   -3784.8141   -4232.7589            0    934.35686    17.813292    23.763102    22.192789    9394.1868     2077.932    225.99282    499.14577   -362.09897   -417.75191   -351.92027 
Loop time of 2449.51 on 32 procs for 1000000 steps with 864 atoms

Performance: 70.545 ns/day, 0.340 hours/ns, 408.246 timesteps/s
3187.8% CPU use with 1 MPI tasks x 32 OpenMP threads

MPI task timing breakdown:
Section |  min time  |  avg time  |  max time  |%varavg| %total
---------------------------------------------------------------
Pair    | 239.65     | 239.65     | 239.65     |   0.0 |  9.78
Bond    | 38.488     | 38.488     | 38.488     |   0.0 |  1.57
Kspace  | 1579.2     | 1579.2     | 1579.2     |   0.0 | 64.47
Neigh   | 9.289      | 9.289      | 9.289      |   0.0 |  0.38
Comm    | 107.67     | 107.67     | 107.67     |   0.0 |  4.40
Output  | 5.541      | 5.541      | 5.541      |   0.0 |  0.23
Modify  | 467.15     | 467.15     | 467.15     |   0.0 | 19.07
Other   |            | 2.492      |            |       |  0.10

Nlocal:        864.000 ave         864 max         864 min
Histogram: 1 0 0 0 0 0 0 0 0 0
Nghost:        6534.00 ave        6534 max        6534 min
Histogram: 1 0 0 0 0 0 0 0 0 0
Neighs:        207104.0 ave      207104 max      207104 min
Histogram: 1 0 0 0 0 0 0 0 0 0

Total # of neighbors = 207104
Ave neighs/atom = 239.70370
Ave special neighs/atom = 2.0000000
Neighbor list builds = 27675
Dangerous builds = 0

unfix		3
unfix		2
unfix		1

write_data	data.final.${pid}
write_data	data.final.0
System init for write_data ...
PPPM initialization ...
  extracting TIP4P info from pair style
  using 12-bit tables for long-range coulomb (../kspace.cpp:340)
  G vector (1/distance) = 0.37109156
  grid = 24 27 25
  stencil order = 5
  estimated absolute RMS force accuracy = 0.0032435827
  estimated relative force accuracy = 9.767953e-06
  using double precision FFTW3
  3d grid and FFT values/proc = 35904 16200
Last active /omp style is kspace_style pppm/tip4p/omp
WARNING: Not all mixed pair coeffs generated from mixing. Use write_data with 'pair ij' option to store all pair coeffs. (../write_data.cpp:312)

write_restart   restart.lmp.${pid}
write_restart   restart.lmp.0
System init for write_restart ...
PPPM initialization ...
  extracting TIP4P info from pair style
  using 12-bit tables for long-range coulomb (../kspace.cpp:340)
  G vector (1/distance) = 0.37109156
  grid = 24 27 25
  stencil order = 5
  estimated absolute RMS force accuracy = 0.0032435827
  estimated relative force accuracy = 9.767953e-06
  using double precision FFTW3
  3d grid and FFT values/proc = 35904 16200
Last active /omp style is kspace_style pppm/tip4p/omp
Total wall time: 0:40:51
