LAMMPS data file via write_data, version 30 Jul 2021, timestep = 15500000

864 atoms
2 atom types
576 bonds
1 bond types
288 angles
1 angle types

0.6597331898673744 17.54783921013258 xlo xhi
1.8686098240472901 21.760567975951503 ylo yhi
0.8048729506789556 21.40832284931791 zlo zhi

Masses

1 1.00794
2 15.9994

Pair Coeffs # lj/cut/tip4p/long/omp

1 0 0
2 0.21084 3.1668

Bond Coeffs # harmonic/omp

1 450 0.9572

Angle Coeffs # harmonic/omp

1 55 104.52

Atoms # full

694 1 2 -1.1794 3.364611117100019 4.038675391021556 3.8167972386801505 0 -4 0
301 1 2 -1.1794 1.5882543040815336 3.1827093833746547 1.8369547845849765 1 5 6
628 1 2 -1.1794 4.7737560268833885 6.011735181661209 5.090082469824248 -2 -1 4
695 1 1 0.5897 3.49828958068322 3.2943958673593006 4.403726951036658 0 -4 0
364 1 2 -1.1794 2.7570888320458953 6.747840569661784 1.4894219307010448 5 9 0
302 1 1 0.5897 1.4906463322829664 3.895111260235607 2.468839152827215 1 5 6
611 1 1 0.5897 4.288302379614775 4.131963550174368 2.262712215912174 3 4 -3
696 1 1 0.5897 3.8227710086067135 4.764206320792145 4.241083192341322 0 -4 0
273 1 1 0.5897 2.027613576068935 6.568074047826478 3.918494569893331 -4 0 7
566 1 1 0.5897 1.3069197390261276 2.4221010430276113 5.826280049417236 0 10 -6
365 1 1 0.5897 2.1957191152901596 6.1381702411442784 1.9684636637864084 5 9 0
303 1 1 0.5897 0.723945793374001 2.7727471371499903 1.8020618098632109 1 5 6
610 1 2 -1.1794 4.848824510911996 4.448946412158229 1.5544423556415934 3 4 -3
482 1 1 0.5897 2.8851352168073316 1.9302833748866983 2.0335532301489643 5 6 5
521 1 1 0.5897 4.409064897449242 6.765155252614284 9.526551352059903 -4 1 -5
222 1 1 0.5897 4.588820061223817 3.7186773064162546 7.041709194630714 1 1 7
221 1 1 0.5897 3.387435048636725 2.881260388778057 6.657656623097254 1 1 7
799 1 2 -1.1794 2.7395995286236623 3.6499831082043905 10.168360865440922 0 -1 5
801 1 1 0.5897 3.059442793085187 3.439697612305498 9.290981014133495 0 -1 5
760 1 2 -1.1794 0.7704572397609336 6.144935346974987 8.619736797316625 2 -6 4
220 1 2 -1.1794 3.722925937319243 3.451075342838676 7.349814188934594 1 1 7
434 1 1 0.5897 3.727617915273316 5.466002273111901 7.8213392488572975 0 1 -1
435 1 1 0.5897 2.511766073322179 6.097594937721281 8.465547761301014 0 1 -1
567 1 1 0.5897 1.2445438281451924 2.343218338839095 7.33690359057347 0 10 -6
433 1 2 -1.1794 3.3901343099830075 6.301557080619264 8.14431633343233 0 1 -1
565 1 2 -1.1794 1.5869663599301278 1.8864204098102124 6.568530501497065 0 10 -6
800 1 1 0.5897 2.9462711127786485 2.875246349986189 10.691239312136764 0 -1 5
488 1 1 0.5897 0.7209790556797212 3.25294605659192 9.355834919744014 1 -4 3
522 1 1 0.5897 4.795783486560102 6.435452788690937 10.952704966169915 -4 1 -5
660 1 1 0.5897 0.7033172032131024 5.770498419765092 6.576254550034164 -1 -1 0
844 1 2 -1.1794 3.9823112340628337 5.463816366412823 12.087504939354844 3 -2 3
319 1 2 -1.1794 2.6472770788616486 4.090997089942567 14.726720972450812 6 -2 5
408 1 1 0.5897 3.222473575728121 2.3077181667898943 13.311042018286235 -1 -3 3
321 1 1 0.5897 1.7753548888099748 3.7005170177077744 14.786598965957237 6 -2 5
320 1 1 0.5897 3.232831920473244 3.4279154510045435 15.092458642521017 6 -2 5
845 1 1 0.5897 4.476562952721486 5.029610315663055 12.782840584717029 3 -2 3
846 1 1 0.5897 3.5777780792260048 4.747844135762664 11.597561347243028 3 -2 3
422 1 1 0.5897 2.5005330400066876 5.6978550241843 15.081507359251928 -3 -1 5
657 1 1 0.5897 1.076544131079002 4.1184239853793985 11.303489655798922 3 2 -3
421 1 2 -1.1794 2.439892830675004 6.626217847904966 15.306876886335713 -3 -1 5
542 1 1 0.5897 4.625193184448066 1.9897419249639243 16.232657438044544 -4 -1 2
406 1 2 -1.1794 3.1402500884180706 1.9535299146333571 12.425535435079778 -1 -3 3
555 1 1 0.5897 3.580411527843573 4.908118391604282 17.132393222394825 -2 -4 6
554 1 1 0.5897 4.3971800340751095 5.228128537692978 18.366337414653906 -2 -4 6
79 1 2 -1.1794 1.2090984285876198 4.483442253525952 17.42458916178744 1 -4 -7
553 1 2 -1.1794 4.365964924180847 4.641869803200538 17.610273230888417 -2 -4 6
81 1 1 0.5897 1.3427692825909723 3.5490314689132774 17.26545311475808 1 -4 -7
693 1 1 0.5897 2.265686768838829 5.490370602743376 20.586792926903758 5 1 6
691 1 2 -1.1794 2.252843457281096 4.606378969973525 20.219735509302687 5 1 6
66 1 1 0.5897 4.513460039153291 5.639607593867483 20.60717711401949 6 2 -2
80 1 1 0.5897 1.6021246607944049 4.639267922180721 18.28340254736118 1 -4 -7
680 1 1 0.5897 4.2859618364229775 3.367901888244832 19.34732263897844 -6 -2 -3
64 1 2 -1.1794 4.5028339193519935 6.286163884123053 19.901357355545745 6 2 -2
692 1 1 0.5897 2.0843308060031416 4.03713124713801 20.97064949443283 5 1 6
681 1 1 0.5897 4.768707267775755 3.29139756383136 20.780225519324414 -6 -2 -3
679 1 2 -1.1794 4.64606021608725 2.760233082650958 19.99337407633367 -6 -2 -3
374 1 1 0.5897 1.7565243720908004 8.622972907333988 3.323887968414389 4 0 0
811 1 2 -1.1794 3.8437692988205026 11.101908511211928 5.840893786223923 -3 5 -4
338 1 1 0.5897 4.300483662971384 7.346783993295984 2.3968609146857593 -1 0 6
375 1 1 0.5897 1.813897241688071 9.963605744076919 2.6227904829529 4 0 0
271 1 2 -1.1794 2.423759717006042 7.22613304383617 4.489750611286325 -4 0 7
490 1 2 -1.1794 2.814211328464065 11.59209175670318 2.5420983312874172 0 6 5
373 1 2 -1.1794 1.2017562448052381 9.335687487169817 3.006723173891125 4 0 0
366 1 1 0.5897 2.147383425712269 7.31655578314505 1.0191492742332022 5 9 0
272 1 1 0.5897 3.308306558778403 6.899515239128582 4.654756533066777 -4 0 7
492 1 1 0.5897 3.741975020730099 11.450882610571389 2.353208007017237 0 6 5
219 1 1 0.5897 4.755173295051426 10.300624312761562 0.8569694456339967 0 5 -1
813 1 1 0.5897 3.596779439102843 10.711275412956406 6.679196365584926 -3 5 -4
437 1 1 0.5897 1.9952922705820932 7.885017968633795 6.084819220840558 1 7 0
621 1 1 0.5897 4.0267897126676075 9.938174400689652 9.657203557538308 4 -3 5
517 1 2 -1.1794 2.8161746289697955 10.21633813906725 8.331989356720914 -1 0 -6
548 1 1 0.5897 4.558980790064612 7.764779247782881 7.07693125078937 8 -5 4
518 1 1 0.5897 2.218556222490663 10.807148083495202 8.790371301099897 -1 0 -6
519 1 1 0.5897 2.2506995459974215 9.529346987611877 7.979021639181511 -1 0 -6
436 1 2 -1.1794 1.422150491223238 8.261189171652603 6.752912294545531 1 7 0
438 1 1 0.5897 0.7505810267215116 8.729535882948841 6.2569697576967025 1 7 0
619 1 2 -1.1794 4.816573321644177 9.835360770347163 10.188229207037557 4 -3 5
391 1 2 -1.1794 1.1043046999811306 11.554752773847719 10.48114878127742 2 -4 -1
684 1 1 0.5897 1.8885135748215598 11.182354831139104 14.356804718274727 8 4 -4
208 1 2 -1.1794 4.637929241724795 7.989072498130831 14.234982304248767 4 -1 4
187 1 2 -1.1794 3.9831041566281673 10.294117391070042 12.848539527756627 -3 2 3
189 1 1 0.5897 4.1324019613466945 10.298286245448558 11.903008558594113 -3 2 3
209 1 1 0.5897 4.495826169277999 8.80512129109557 13.755208621151912 4 -1 4
537 1 1 0.5897 4.255532059600575 10.789646176912251 15.533826999967689 6 10 7
423 1 1 0.5897 3.1481808377855702 7.03977001717176 14.813309446022206 -3 -1 5
188 1 1 0.5897 3.0407609869235155 10.154275419120262 12.942123478412904 -3 2 3
653 1 1 0.5897 1.3865774127184198 7.343353684504447 12.365392698745556 -1 1 1
535 1 2 -1.1794 3.3185346059387 10.938945942516984 15.660790241836892 6 10 7
652 1 2 -1.1794 1.8045043801346468 7.5150792190944 11.521484020693942 -1 1 1
654 1 1 0.5897 2.697080409496521 7.184778064445001 11.624070488901594 -1 1 1
682 1 2 -1.1794 1.3377298280291594 11.422084932757341 13.611485448593168 8 4 -4
864 1 1 0.5897 1.14061171142507 7.062019973722574 14.467507398650804 2 -1 3
789 1 1 0.5897 4.727918598644285 8.771654670300531 16.232513985687895 3 -6 8
65 1 1 0.5897 4.372740311065525 7.124122737479905 20.345461131094027 6 2 -2
283 1 2 -1.1794 1.117218287888508 8.240765232845604 20.444716364363693 7 0 -3
772 1 2 -1.1794 2.137235264308438 8.034768693766736 17.645908275620087 0 -3 1
787 1 2 -1.1794 4.725304039955086 8.803035648328775 17.189237290766307 3 -6 8
774 1 1 0.5897 2.1420535849966695 7.489413557733575 16.859220209915932 0 -3 1
773 1 1 0.5897 1.533522711909034 8.748412011062555 17.439542239697186 0 -3 1
788 1 1 0.5897 3.835256894282792 8.550801772707487 17.435206743990545 3 -6 8
243 1 1 0.5897 3.3761160158523413 10.284399826149533 19.96225455228314 -3 1 3
284 1 1 0.5897 0.918688082005787 9.113889604310419 20.78318149843728 7 0 -3
241 1 2 -1.1794 4.09858517029582 9.657469162393587 19.926183322964558 -3 1 3
285 1 1 0.5897 1.661031798431614 8.400336662773904 19.673281437518757 7 0 -3
536 1 1 0.5897 3.2671762964711615 11.492664586189415 16.439965012829695 6 10 7
88 1 2 -1.1794 0.8399730816496104 10.782870796464708 17.868153025479693 9 -3 0
90 1 1 0.5897 0.9266657612131005 11.351940862958546 17.103323939964483 9 -3 0
242 1 1 0.5897 4.3908441208245454 9.680264277659393 19.014913963362716 -3 1 3
734 1 1 0.5897 1.6218909952327363 11.77961406420749 20.532713630649315 -1 -1 -3
849 1 1 0.5897 1.4788014208104912 14.984540974064805 2.8650333481288626 6 0 3
145 1 2 -1.1794 3.0825707425908737 15.810305514306474 3.3268677831015285 -1 1 -1
147 1 1 0.5897 3.152233998067704 16.126372589460622 4.227730414960823 -1 1 -1
643 1 2 -1.1794 2.1498564985509656 12.854596974028333 4.862240991376326 0 -2 3
102 1 1 0.5897 3.854081383319383 14.444902990014873 1.966061879920446 10 -5 -4
644 1 1 0.5897 2.6828435162193993 13.606660466555967 4.604111008511888 0 -2 3
645 1 1 0.5897 2.243272583076815 12.234634324026217 4.138880446680601 0 -2 3
146 1 1 0.5897 3.486166982687913 16.499277901295848 2.7989167373612567 -1 1 -1
491 1 1 0.5897 2.4499966389726993 11.924037753889062 1.7214405789129943 0 6 5
100 1 2 -1.1794 3.8844952267551336 14.188833757010352 1.0442102083496319 10 -5 -4
101 1 1 0.5897 4.712360938424316 13.716913960115804 0.9534027479224816 10 -5 -4
812 1 1 0.5897 3.230541656279328 11.827631373087941 5.724343827453456 -3 5 -4
381 1 1 0.5897 4.538150432075254 12.469334588251694 3.8242268223284985 4 3 -1
214 1 2 -1.1794 2.3748840007579677 15.520698289892833 10.927869013858368 -3 -2 4
440 1 1 0.5897 1.6625387999175114 14.156272562717506 8.422589695816209 4 1 4
756 1 1 0.5897 3.6171675322732466 13.455998049247862 9.029772008200556 -3 -2 -5
441 1 1 0.5897 1.8433191812830498 12.825103494547962 7.72443378802708 4 1 4
439 1 2 -1.1794 2.2876441640903 13.654805510663035 7.899045503297263 4 1 4
818 1 1 0.5897 3.0142978007021664 14.89856577581169 6.747638919019673 2 0 0
754 1 2 -1.1794 4.324166084151847 13.506849946790629 9.673122401516126 -3 -2 -5
755 1 1 0.5897 4.598407546819551 14.42381565066151 9.656348591696402 -3 -2 -5
819 1 1 0.5897 4.4269951923336 15.029398037771974 6.219155873851779 2 -1 0
216 1 1 0.5897 1.884403665437394 14.779886677141253 10.571573926379232 -3 -2 4
215 1 1 0.5897 2.2210125490292874 16.23183683939442 10.305835731090006 -3 -2 4
817 1 2 -1.1794 3.6076451519848454 15.514470758379819 6.317611722758514 2 0 0
37 1 2 -1.1794 0.7532534890189986 16.514132966771793 6.9976555861859095 -3 9 -5
425 1 1 0.5897 1.8199405449168473 13.968097825684431 15.318466212805575 7 -5 4
426 1 1 0.5897 2.5240242541399533 13.672215146021488 14.011249510366968 7 -6 4
815 1 1 0.5897 4.016583000770759 12.20611853234686 12.855451307563632 -4 9 -7
816 1 1 0.5897 3.9716629235923 12.968344084810774 11.548135774658855 -4 9 -7
814 1 2 -1.1794 4.0671735202103125 13.09053870815678 12.492731486874213 -4 9 -7
237 1 1 0.5897 3.9777099869239865 15.724909812816868 12.164461453837644 1 1 -6
424 1 2 -1.1794 2.4988683368659115 14.301762806880227 14.731915704399162 7 -5 4
698 1 1 0.5897 4.515479805224858 13.240027794000648 15.330112561675163 -4 7 -4
235 1 2 -1.1794 4.809120332417827 15.722170874098722 12.638874334942512 1 1 -6
453 1 1 0.5897 2.470787212580795 16.05089989718681 14.397965801353214 -3 -1 5
452 1 1 0.5897 1.5019482270147946 16.574265562649835 13.358926909327433 -3 -1 5
392 1 1 0.5897 1.3141902754397967 11.834191448421745 11.372330025500267 2 -4 -1
63 1 1 0.5897 2.08076680185032 16.672122992261745 19.232430223019332 -1 -1 0
266 1 1 0.5897 4.08568188255898 15.297643810599958 17.521083088941975 -2 -2 -1
431 1 1 0.5897 1.715370255989279 15.351675466533385 17.477474834338945 -5 -5 -5
753 1 1 0.5897 4.432650334444942 12.464852095889686 18.23647837466359 7 0 0
751 1 2 -1.1794 3.4988443658750668 12.455977896102475 18.02612162715706 7 0 0
430 1 2 -1.1794 2.3623543269609897 15.050817552594218 18.115599223712074 -5 -5 -5
432 1 1 0.5897 2.606981484015344 14.175560111479813 17.814930455935446 -5 -5 -5
735 1 1 0.5897 2.70160409420866 12.837123656191855 20.622256867549332 -1 -1 -3
97 1 2 -1.1794 0.7110561277188328 14.244328955959205 20.44422183738964 4 -6 4
98 1 1 0.5897 1.3160047456527646 14.77393464350759 19.924738276003726 4 -6 4
575 1 1 0.5897 4.654655974119672 15.564523667113287 20.387676126600944 1 -1 -3
752 1 1 0.5897 3.0730383479945265 12.174954817461575 18.836072106009432 7 0 0
733 1 2 -1.1794 2.5713714747778464 11.896704094962272 20.49980777394899 -1 -1 -3
574 1 2 -1.1794 4.85883536361307 16.39551279267394 19.958627592305128 1 -1 -3
576 1 1 0.5897 4.647630760260759 16.247856612703572 19.036630833763272 1 -1 -3
288 1 1 0.5897 4.247282579866798 21.184695890702415 3.785024393052827 7 1 -1
532 1 2 -1.1794 4.179152304178443 17.661163059562952 1.8305234208341479 -11 -1 -1
766 1 2 -1.1794 1.6499481148584203 18.091929095352384 5.069372902890916 -2 -7 5
403 1 2 -1.1794 4.686361149468129 18.67569242523566 5.539466158398442 3 0 -3
534 1 1 0.5897 3.3755718668811845 18.180657928934377 1.8570617366120288 -11 -1 -1
191 1 1 0.5897 0.9319514533001214 18.277180669084032 1.898133786769966 6 3 -7
286 1 2 -1.1794 4.239048563321608 21.3871978883376 4.72056844193081 7 1 -1
405 1 1 0.5897 3.8521116208361854 18.23867523539031 5.710841281305551 3 0 -3
481 1 2 -1.1794 3.519524175236092 21.106894331761378 1.9871687464973151 5 5 5
768 1 1 0.5897 1.194378739962317 17.78873288661452 4.283983634790046 -2 -7 5
404 1 1 0.5897 4.448048585102791 19.58453233465138 5.356329790417368 3 0 -3
190 1 2 -1.1794 1.6835321998495163 18.59449055730338 1.3973886270590206 6 3 -7
483 1 1 0.5897 3.01848626603779 20.36310661853988 1.6524006423718922 5 5 5
767 1 1 0.5897 1.1255290217948748 18.82946426848624 5.381352264283799 -2 -7 5
533 1 1 0.5897 4.262759065052685 17.39501643474712 0.9148229327144917 -11 -1 -1
678 1 1 0.5897 1.772900057915628 16.961318331891395 8.367298337060006 1 2 -3
527 1 1 0.5897 4.108605891413994 19.196541292605534 8.72546558226147 3 -8 -2
526 1 2 -1.1794 4.457635849243841 18.365214642990633 8.40392632032162 3 -8 -2
676 1 2 -1.1794 1.9526228700209258 17.48768104795335 9.146390481479603 1 2 -3
528 1 1 0.5897 4.5408678189715594 18.4895124965928 7.45844666890968 3 -8 -2
856 1 2 -1.1794 1.0801727875359437 20.094423764947106 9.911720014778268 -3 1 -3
857 1 1 0.5897 1.4737888774616275 19.252068986522097 9.684025556927141 -3 1 -3
585 1 1 0.5897 2.6720709207420326 20.713048362622313 9.53093926455428 2 -3 3
583 1 2 -1.1794 3.5667864828949374 20.79528120630667 9.200744859108667 2 -3 3
858 1 1 0.5897 0.9271470446026161 20.040599115654974 10.855131257923338 -3 1 -3
677 1 1 0.5897 2.8841184210482664 17.699146568225032 9.083526707090149 1 2 -3
39 1 1 0.5897 1.127376291766548 16.95988242236903 6.237595642620268 -3 9 -5
584 1 1 0.5897 3.4887133107743264 21.364756504921367 8.435285717878134 2 -3 3
377 1 1 0.5897 4.054595631403304 19.090328154708146 12.512510855315053 5 1 5
378 1 1 0.5897 3.132260858286681 17.89071251632475 12.560685260162845 5 1 5
724 1 2 -1.1794 1.4749159730866603 20.17084357422662 14.128719145182533 4 -4 0
149 1 1 0.5897 2.4081774167730927 17.949470844137412 15.408367822887596 -3 -1 2
725 1 1 0.5897 1.0002921499525348 19.563431523545923 13.561167471325197 4 -4 0
451 1 2 -1.1794 2.1877793658434124 16.85602999423713 13.964395044666562 -3 -1 5
726 1 1 0.5897 1.5406294138079666 19.714094637981326 14.967393095360654 4 -4 0
407 1 1 0.5897 2.887333035255498 20.93139534350951 12.555196377045457 -1 -4 3
543 1 1 0.5897 3.923517957967622 20.97113946431588 15.247455473197256 -4 -2 2
376 1 2 -1.1794 3.5977244497802734 18.463723180403107 11.951311299366061 5 1 5
667 1 2 -1.1794 4.803769019239176 19.815332360514542 14.172865880892344 -9 -3 0
148 1 2 -1.1794 2.385671082350246 18.545572932483164 16.157011130425 -3 -1 2
541 1 2 -1.1794 3.7735938597507745 21.717783152887865 15.827418680928796 -4 -2 2
354 1 1 0.5897 2.4357286065544526 20.942967260507963 18.585064166920176 8 1 -4
353 1 1 0.5897 3.4621801757145794 21.334594287483416 19.62676889354874 8 1 -4
192 1 1 0.5897 1.7268146651890253 18.015251877560186 21.239968525633458 6 3 -8
352 1 2 -1.1794 3.1554207782793657 20.590465136087207 19.108609283031285 8 1 -4
62 1 1 0.5897 2.2392775028473375 18.113592234396748 18.797473177189357 -1 -1 0
150 1 1 0.5897 3.302117073591093 18.63858546424919 16.417379273499378 -3 -1 2
61 1 2 -1.1794 2.0041610651892983 17.57167397740171 19.550700128688682 -1 -1 0
120 1 1 0.5897 0.985814065960628 20.146273909062632 19.894837194721745 0 -3 -1
30 1 1 0.5897 0.9645693107238307 17.269176894929142 16.703738207052552 -9 0 5
685 1 2 -1.1794 4.605563982121125 19.09067171821297 17.432357912744934 8 -9 -4
687 1 1 0.5897 4.063613756328502 19.550708361128663 18.073452665557085 8 -9 -4
563 1 1 0.5897 2.266347646555184 21.51707423552535 16.763722922202895 8 2 3
562 1 2 -1.1794 1.437054456179646 21.668855528441345 17.217093534275442 8 2 3
564 1 1 0.5897 0.8017104296164278 21.134415679531415 16.74060928155241 8 2 3
630 1 1 0.5897 5.205421306492192 6.303718169017758 4.287135537700255 -2 -1 4
473 1 1 0.5897 7.6725092602417115 5.346336276490477 2.232696330069604 -1 -2 -4
589 1 2 -1.1794 7.412005412149817 2.512463142820672 3.5123200386753184 1 4 2
591 1 1 0.5897 7.303209651188779 3.4633886360707065 3.5268784652720213 1 4 2
629 1 1 0.5897 5.359529764708111 5.34494018023924 5.448635349059618 -2 -1 4
590 1 1 0.5897 7.095194083051383 2.24784919293366 2.6486529454140793 1 4 2
612 1 1 0.5897 5.554165599336083 4.91940247417981 1.998828880638546 3 4 -3
474 1 1 0.5897 7.232214317577306 6.028428325129741 3.510579789495462 -1 -2 -4
472 1 2 -1.1794 7.145190999736047 5.211032338977649 3.02006637326609 -1 -2 -4
466 1 2 -1.1794 8.897041517209734 6.3687181196123035 1.2327378146796086 10 -4 11
605 1 1 0.5897 8.341755511557057 6.744504567798464 5.079451408278294 -6 1 -2
582 1 1 0.5897 7.021974988290376 2.7597013419625975 9.044592968308391 -8 -1 3
721 1 2 -1.1794 7.511972409205461 4.540322273972317 8.874485304232103 3 3 1
722 1 1 0.5897 8.247364664435793 4.2058181384281035 8.361056411815625 3 3 1
96 1 1 0.5897 6.816310007234982 4.337986173511329 11.094531612822568 -8 3 -1
723 1 1 0.5897 7.62155374581657 5.491150052540024 8.859416649815897 3 3 1
511 1 2 -1.1794 9.038863022236338 2.8245112960652747 7.037193813609698 -1 0 -3
855 1 1 0.5897 6.571553963328269 4.609262929469038 7.267960854008351 0 0 5
74 1 1 0.5897 8.751313691378483 5.150177481164887 11.023160938191493 -2 -1 0
853 1 2 -1.1794 6.2446020800563975 4.2981493850968455 6.423778529343846 0 0 5
854 1 1 0.5897 6.607280899288793 3.4166117691943354 6.336039407891859 0 0 5
512 1 1 0.5897 8.332709903067622 2.4259024752792997 6.528490727642518 -1 0 -3
413 1 1 0.5897 6.5520782475092645 2.3305285533046844 14.272039426246476 2 -2 1
769 1 2 -1.1794 6.321210731399277 5.3950428435979285 15.797892237122491 2 -1 -2
770 1 1 0.5897 7.118451401433772 4.8734327902263415 15.890967877533996 2 -1 -2
501 1 1 0.5897 6.081772217385732 3.8243058027705037 13.196483382951795 4 -2 -5
324 1 1 0.5897 8.365251119473161 3.061230819522016 12.347600186987686 12 -1 -2
499 1 2 -1.1794 5.532620428091627 3.659094670754226 13.96293928810336 4 -2 -5
500 1 1 0.5897 5.80753573191109 4.3171200921056405 14.601484859085465 4 -2 -5
322 1 2 -1.1794 9.087909715272282 2.5348284140961543 12.689614824904583 12 -1 -2
95 1 1 0.5897 7.274898930800473 5.224484494636894 12.232908983956778 -7 3 -1
94 1 2 -1.1794 7.2220390888656745 4.308192162622788 11.96102132704049 -8 3 -1
790 1 2 -1.1794 8.482524523506132 3.7794580044136747 16.18877931895429 3 4 -3
601 1 2 -1.1794 7.190326832119169 3.0478283529283803 19.153272802445134 2 9 -3
791 1 1 0.5897 8.578376735404454 3.591404484290501 17.12246355360346 3 4 -3
245 1 1 0.5897 6.652155843845544 2.3541004875951783 17.536997416225145 -2 5 0
270 1 1 0.5897 8.489903531568924 2.7689717307071056 20.84624607435349 8 6 6
603 1 1 0.5897 6.373105148166234 2.6715754035713934 19.48026793136013 2 9 -3
602 1 1 0.5897 7.060328790124881 3.99420838567942 19.2147391480102 2 9 -4
384 1 1 0.5897 7.608714357045101 6.0343459031591555 18.725774091681505 -10 -3 -3
383 1 1 0.5897 6.356556783004377 5.919890768527157 19.569057080536975 -10 -3 -3
382 1 2 -1.1794 7.265173642792057 5.6228600415588605 19.518847858324232 -10 -3 -3
180 1 1 0.5897 7.318017511449697 6.532310737648615 16.616203688639082 -9 3 0
467 1 1 0.5897 8.867256868946042 5.887303180409455 21.0093509899878 10 -4 10
771 1 1 0.5897 5.77022265960525 5.1243888023654165 16.532383703588412 2 -1 -2
327 1 1 0.5897 8.226874643249852 10.572097188355109 2.6659434615486264 -1 -1 1
702 1 1 0.5897 6.223996467492939 7.762815961240197 1.5431309346703788 1 3 0
234 1 1 0.5897 6.123219887720035 10.415941641419595 3.9480235638685595 -4 -3 -1
604 1 2 -1.1794 7.929543852909003 7.549373734012577 4.765483508607279 -6 1 -2
325 1 2 -1.1794 8.651376351360843 10.243185946638604 1.873484252319484 -1 -1 1
326 1 1 0.5897 8.009406778747227 9.647581971724332 1.4869033928201243 -1 -1 1
625 1 2 -1.1794 7.541391615541852 11.467545623398706 4.1418769002909235 -5 -3 3
337 1 2 -1.1794 5.168053700351252 7.3438233110493165 2.801369860270958 -1 0 6
217 1 2 -1.1794 5.161473112039131 10.797552611091644 1.5671138781981815 0 5 -1
218 1 1 0.5897 5.2138185196628015 10.177525517912688 2.294528560927329 0 5 -1
626 1 1 0.5897 7.882205830349687 11.30861785345974 5.022160758307328 -5 -3 3
606 1 1 0.5897 8.662475551114898 8.117972825032126 4.529165286558982 -6 1 -2
232 1 2 -1.1794 5.429887896722671 9.759597080093172 4.017486045043118 -4 -3 -1
339 1 1 0.5897 5.1915965755022295 8.145012265093229 3.3246881408252653 -1 0 6
700 1 2 -1.1794 6.831585331779938 8.042310798208065 0.8582734828465833 1 3 0
233 1 1 0.5897 4.959375419765201 9.991351960770102 4.818243417934974 -4 -3 -1
155 1 1 0.5897 5.749517545007446 10.950678690942107 8.545804849141732 0 1 -5
664 1 2 -1.1794 7.868942450812889 8.436806284077527 10.630977567595693 -2 0 4
275 1 1 0.5897 7.856311150321428 10.919168563325815 7.047343542878345 2 4 -1
666 1 1 0.5897 8.576242227581659 8.955739092105265 10.247819268906415 -2 0 4
156 1 1 0.5897 5.403045357678531 10.951856899769284 7.072003120792127 0 1 -5
4 1 2 -1.1794 7.157924525820709 7.230389943624721 8.08573532840225 3 -3 -2
274 1 2 -1.1794 8.687539950271852 10.711587544106242 6.620399576539279 2 4 -1
665 1 1 0.5897 7.478770248819027 7.97697312209509 9.887556453493502 -2 0 4
5 1 1 0.5897 6.535506359823677 7.935023049804468 7.9056434119989865 3 -3 -2
154 1 2 -1.1794 6.077889594074879 11.230242571960074 7.69121396469962 0 1 -5
6 1 1 0.5897 7.884562974801721 7.392423093056354 7.4840231038201095 3 -3 -2
520 1 2 -1.1794 4.989527829900284 7.04014551814273 10.236361237306879 -4 1 -5
549 1 1 0.5897 5.668384588063924 7.929092031100266 6.059913624622283 8 -5 4
620 1 1 0.5897 4.999812517839848 8.89606893236213 10.166476955132055 4 -3 5
547 1 2 -1.1794 5.13720952989821 8.420305107309114 6.686712506935808 8 -5 4
206 1 1 0.5897 8.990954346735707 11.106838442810094 13.016038552720687 -5 -1 -2
544 1 2 -1.1794 7.370345611701394 10.447526495143597 12.523492680982068 -6 3 3
210 1 1 0.5897 5.365108831745536 7.5658079391410595 13.778492561080025 4 -1 4
330 1 1 0.5897 6.313603124641951 10.576285883779605 14.182274868398993 4 6 -2
546 1 1 0.5897 7.590278412821205 9.680893119491724 11.994111250732924 -6 3 3
690 1 1 0.5897 8.82796475435112 8.454190477516104 14.661389169794262 0 -7 3
647 1 1 0.5897 7.474279335868581 7.312821400771826 13.255282019513494 -5 -3 -3
328 1 2 -1.1794 5.955934620179308 10.642694766256854 15.067711370545572 4 6 -2
152 1 1 0.5897 7.369424371219316 9.840389507942376 15.614375233765925 4 -2 -2
545 1 1 0.5897 6.849427778883895 11.000142480560461 11.940769238842677 -6 3 3
329 1 1 0.5897 6.07810578873571 11.561323858535093 15.307595211846827 4 6 -2
648 1 1 0.5897 6.950810543899592 7.399764431092773 11.837353922018478 -5 -3 -3
151 1 2 -1.1794 8.138593823713894 9.588536701204598 16.125520677946504 4 -2 -1
646 1 2 -1.1794 6.755490837923681 7.020980060399774 12.694492093744723 -5 -3 -3
688 1 2 -1.1794 9.08648146263564 7.870097938144709 13.948428774477634 0 -7 3
153 1 1 0.5897 8.643349229731559 10.397078347142267 16.213824139147565 4 -2 -1
371 1 1 0.5897 6.391291853687592 11.27981122449795 18.627994179118353 5 7 -2
759 1 1 0.5897 6.708844019542872 9.11511365105186 19.462211594495233 3 1 2
758 1 1 0.5897 6.458788164065276 9.221172318684781 17.9728105060761 3 1 2
179 1 1 0.5897 7.801995478875392 7.909979446757356 17.01611631713083 -9 3 0
757 1 2 -1.1794 6.949461325854943 9.625044125786502 18.68865769470228 3 1 2
258 1 1 0.5897 8.748330001886382 9.768364047380052 19.01101250280362 1 -1 -1
178 1 2 -1.1794 7.891981044564633 6.982663771370423 17.23593312294787 -9 3 0
701 1 1 0.5897 7.398988361323601 7.284432838895891 21.32036939043108 1 3 -1
390 1 1 0.5897 6.578169877516346 15.718501194004558 3.6890207145610656 1 3 3
176 1 1 0.5897 8.38693153434517 14.594904482768847 2.5898575591972337 -2 -4 9
627 1 1 0.5897 7.569606629680439 12.419118991196859 4.0417681351396055 -5 -3 3
713 1 1 0.5897 6.1460719102226555 12.263544502618503 1.0828573750644737 -6 -1 1
389 1 1 0.5897 6.208073072057124 14.427898428175828 2.9893931786859858 1 3 2
380 1 1 0.5897 5.371370745021567 13.222599939160574 4.839401665286038 4 3 -1
388 1 2 -1.1794 6.7735925206320715 15.196241572283094 2.9109650551938167 1 3 3
128 1 1 0.5897 7.680715589438782 15.962462594285519 1.4595743520882527 -2 0 -2
649 1 2 -1.1794 8.33661325939442 14.077493197333949 5.444355385265453 4 -5 1
651 1 1 0.5897 8.55593283349742 14.928908471846333 5.065805691273444 4 -5 1
379 1 2 -1.1794 4.977485145767444 13.307072302222604 3.9710262560108704 4 3 -1
25 1 2 -1.1794 6.592909925360093 16.67736582294004 5.202616925141624 -3 5 4
140 1 1 0.5897 8.265854074399469 12.342235792001711 10.391423854564342 2 -6 3
254 1 1 0.5897 8.69352316289212 16.130859000796185 8.349849696687336 0 10 -10
7 1 2 -1.1794 7.732481035408623 16.032717680306654 10.98056038069436 2 -3 -4
497 1 1 0.5897 5.752158607113 12.635588763908157 10.18416000198107 -1 1 -2
782 1 1 0.5897 6.079028564737272 15.586995153381105 8.074705531692878 -3 1 1
349 1 2 -1.1794 5.7991936228636085 13.848389291164946 6.602904235058115 -11 4 -3
350 1 1 0.5897 5.833256158506367 13.184823107336193 7.292019528791535 -11 4 -3
781 1 2 -1.1794 5.918173277557401 15.970697683981443 8.936806534663175 -3 1 1
496 1 2 -1.1794 6.494307911182309 12.376097220253094 10.730257082678408 -1 1 -2
8 1 1 0.5897 7.172583904031259 16.125238212089286 10.209628976137976 2 -3 -4
9 1 1 0.5897 8.607849514360606 15.880054906071285 10.624513157900138 2 -3 -4
351 1 1 0.5897 6.689837032952296 13.877260979755125 6.253240795023955 -11 4 -3
670 1 2 -1.1794 7.112886117403289 14.088640559389777 12.906718007033138 6 -2 4
697 1 2 -1.1794 5.469260254867498 13.25114445001803 15.410750391014377 -4 7 -4
671 1 1 0.5897 7.830246475125322 14.0431119502291 13.538881683204592 6 -2 4
498 1 1 0.5897 6.581813040721244 13.084147952380718 11.36846776877612 -1 1 -3
672 1 1 0.5897 7.355287726400369 14.805011240212407 12.319857598594057 6 -2 4
16 1 2 -1.1794 7.90464506597609 16.111586766736004 15.41612548911352 -7 1 4
699 1 1 0.5897 5.782805165972836 13.436343652281128 14.525481144932252 -4 7 -4
236 1 1 0.5897 5.008390156537422 14.794899776701074 12.768545837123186 1 1 -6
18 1 1 0.5897 7.079766797037465 16.482224230657494 15.102259412943063 -7 1 4
495 1 1 0.5897 5.020354890502389 16.69970943126811 15.594059161840345 0 2 2
503 1 1 0.5897 8.050483977612497 14.48379075776069 16.20795732131414 -7 2 3
494 1 1 0.5897 5.218552312240444 16.693798460572673 14.093124983535265 0 2 2
17 1 1 0.5897 8.112103546951296 16.61835194531049 16.201277079401777 -7 1 4
372 1 1 0.5897 6.617041513164591 12.634901293299675 17.991696400522482 5 7 -2
267 1 1 0.5897 5.25659879937302 14.57505125208103 16.889461505484736 -2 -2 -1
714 1 1 0.5897 6.368658298591488 13.051123750955124 20.4126220625681 -6 -1 0
129 1 1 0.5897 7.224805063349628 16.743842103889662 20.849042160279943 -2 0 -3
502 1 2 -1.1794 8.264640335743449 13.70855949428845 16.727058478844334 -7 2 3
504 1 1 0.5897 8.445207901674946 14.048868242727533 17.603354200806667 -7 2 3
588 1 1 0.5897 8.786583635491588 13.654796970983087 19.93608215683898 -1 3 4
586 1 2 -1.1794 8.713220563487056 14.445431536521333 19.401457308129963 -1 3 4
587 1 1 0.5897 8.354093674516378 15.104450453877764 19.995620048714514 -1 3 4
712 1 2 -1.1794 6.344831884108113 13.143121002138427 21.365136949467658 -6 -1 0
370 1 2 -1.1794 6.160785110754461 12.204799849530641 18.715004380766437 5 7 -2
265 1 2 -1.1794 4.990809150609422 15.426332977382312 17.237328467026774 -2 -2 -1
293 1 1 0.5897 6.54152906175606 16.360198284912798 17.744551895293906 4 -1 1
127 1 2 -1.1794 8.011198048843873 16.463951407005105 21.31762548470412 -2 0 -3
106 1 2 -1.1794 8.51925878729914 19.593148210705778 5.5397309824296 -3 -1 1
486 1 1 0.5897 6.74339350592896 18.07946070649565 3.7435603200389465 -4 5 4
826 1 2 -1.1794 6.31958680402386 20.783489267558995 1.4408252802460662 3 -1 3
135 1 1 0.5897 8.949294322240311 21.519913147130893 3.2320014181726284 0 -6 1
287 1 1 0.5897 5.116639275486515 21.7242817202539 4.900886397998892 7 1 -1
485 1 1 0.5897 5.968468662023084 18.04403516157074 2.4434349448345856 -4 5 4
27 1 1 0.5897 5.818553988310893 17.2350332716876 5.278148234919856 -3 5 4
484 1 2 -1.1794 6.680019874071281 18.504617111943364 2.8882646016250226 -4 5 4
828 1 1 0.5897 6.462686947730679 20.04359927526564 2.031076623654638 3 -1 3
182 1 1 0.5897 8.935078226125212 17.22203319393852 4.460204498413896 -7 2 -4
108 1 1 0.5897 8.76065379976572 20.123164099950035 4.78004441405729 -3 -1 1