LAMMPS data file via write_data, version 30 Jul 2021, timestep = 5500000

1008 atoms
2 atom types
672 bonds
1 bond types
336 angles
1 angle types

-3.180707593173606 14.790706592729054 xlo xhi
-0.18327421536963584 22.7632732153696 ylo yhi
-0.08093414147695199 19.3109321414818 zlo zhi
0.04950407497467421 -6.368050939757775 -0.03282890552926581 xy xz yz

Masses

1 1.008
2 15.999

Pair Coeffs # lj/cut/tip4p/long/omp

1 0 0
2 0.21084 3.1668

Bond Coeffs # harmonic/omp

1 450 0.9572

Angle Coeffs # harmonic/omp

1 55 104.52

Atoms # full

122 41 1 0.5897 -2.1674211822799707 2.106918173615105 1.7029715458142667 1 0 0
123 41 1 0.5897 -3.0792667648346397 2.5599749862963255 2.823203957868845 1 0 0
56 19 1 0.5897 -0.9474075143826033 3.53370344695414 3.035425886248904 0 0 0
19 7 2 -1.1794 0.94921022616849 2.9832203931292347 0.07572472421134346 0 0 0
158 53 1 0.5897 -4.408999130667616 4.573800155429106 4.631421071121934 1 0 0
86 29 1 0.5897 -2.5497615852090005 1.13208435875215 4.225546111409614 1 0 0
121 41 2 -1.1794 -2.2226936838909257 2.166657742704445 2.6566480029783803 1 0 0
21 7 1 0.5897 0.9365003874072517 2.4601878743080836 0.8772310748757423 0 0 0
55 19 2 -1.1794 -0.18918587869753267 3.9287779508486356 3.4656696935609492 0 0 0
114 38 1 0.5897 -3.3709884921153703 5.265330485725906 1.9001218301444291 1 0 0
163 55 2 -1.1794 -2.068487316713429 1.3218962160123873 0.0720572367735203 1 0 0
113 38 1 0.5897 -3.1258166229295083 5.440311834679652 3.383662073826003 1 0 0
9 3 1 0.5897 -0.48456653694058804 5.520629830746621 4.283930392226607 0 0 0
602 201 1 0.5897 -0.6684766996137297 5.512673765534573 0.4635575416099551 1 0 1
165 55 1 0.5897 -2.8042574236098186 0.724480518593102 -0.06191086639661107 1 0 0
134 45 1 0.5897 -1.9811763135361748 2.412965297726397 6.126103794875387 1 0 0
69 23 1 0.5897 -2.1551761436466244 1.2278125898505325 8.668171924276017 0 0 0
68 23 1 0.5897 -2.6688390168387723 0.13411243185537586 7.756135184772392 0 0 0
159 53 1 0.5897 -3.1113867334739638 4.287399051364103 5.356555154479265 1 0 0
124 42 2 -1.1794 -4.946633795023052 2.557346838575043 7.34592850169235 1 0 0
98 33 1 0.5897 -3.627143730427095 5.272262087904397 8.56091991375477 1 0 0
133 45 2 -1.1794 -2.27622780502212 3.185827421495898 6.607600831236821 1 0 0
126 42 1 0.5897 -4.17621822056245 3.0415199853823434 7.048937855351648 1 0 0
67 23 2 -1.1794 -1.870608575023709 0.46088178447606154 8.171143529810033 0 0 0
135 45 1 0.5897 -1.4689616535346977 3.6108580679306996 6.897190850365489 1 0 0
669 223 1 0.5897 -4.767891790505695 1.4363915485973915 8.935508675939637 1 0 0
97 33 2 -1.1794 -3.625139040573661 4.752117083553445 9.36440805377367 1 0 0
87 29 1 0.5897 -3.761504644235443 0.7833750781251537 5.06325846724619 1 0 0
157 53 2 -1.1794 -3.670392920893175 5.005730088145551 5.060438343060061 1 0 0
606 202 1 0.5897 -5.941912509119479 4.387544608061334 9.14412722035822 1 0 0
85 29 2 -1.1794 -2.8045309124699003 0.7672259168855657 5.072961361984867 1 0 0
485 162 1 0.5897 -6.04177736926008 -0.19490330476067755 8.647575718277054 1 1 0
662 221 1 0.5897 -7.565703982952615 4.346922913826536 13.809873410443224 1 0 0
559 187 2 -1.1794 -3.878766353621605 4.296179174820834 13.011693092028716 0 0 0
625 209 2 -1.1794 -5.594189573644427 2.553312267000376 11.763569980489297 1 0 0
668 223 1 0.5897 -5.1930798270256355 1.5483857356958397 10.384066350479046 1 0 0
523 175 2 -1.1794 -2.263733427226735 2.5256296529497004 9.937748602192716 0 0 0
589 197 2 -1.1794 -5.320044084038571 1.0607308996196931 14.122412626325668 1 0 0
626 209 1 0.5897 -5.393190424865159 1.9527691445459907 12.481271558281101 1 0 0
561 187 1 0.5897 -4.566230358413605 3.9163942360534376 12.464593752833629 0 0 0
661 221 2 -1.1794 -7.226390744647156 5.102335522973432 14.28991686166023 1 0 0
627 209 1 0.5897 -6.528643160953811 2.737199188336284 11.859054641059345 1 0 0
986 329 1 0.5897 -4.0957866969511265 -0.17273798031855897 10.745130303889178 1 1 0
667 223 2 -1.1794 -5.025786117950505 0.9091184018608487 9.69157816905141 1 0 0
99 33 1 0.5897 -3.5196491387158084 5.394710744981473 10.065923457969015 1 0 0
560 187 1 0.5897 -3.6293378942609484 3.5903012239628898 13.608074829505314 0 0 0
524 175 1 0.5897 -2.781951422747322 3.2962918484192594 9.706007342705187 0 0 0
987 329 1 0.5897 -3.092697407795775 -0.08161631771396913 11.875253622440793 1 1 0
591 197 1 0.5897 -4.880925174304148 0.21395707059892172 14.202250154696122 1 0 0
593 198 1 0.5897 -7.604558707145819 0.47111911516922733 14.421148843252217 1 0 0
572 191 1 0.5897 -6.311798334392153 -0.037197111654750786 17.727609342999724 0 0 0
571 191 2 -1.1794 -5.563525981914827 0.44109242354585865 18.08463625356016 0 0 0
637 213 2 -1.1794 -5.7512978728731206 3.1879595884316596 15.963999499330871 1 0 0
628 210 2 -1.1794 -8.12481477398089 2.39197495417975 16.93517640404014 1 0 0
639 213 1 0.5897 -6.153872073785896 3.6323925773506165 15.217959887115052 1 0 0
590 197 1 0.5897 -5.3310539433269355 1.410331343802905 15.013366249197023 1 0 0
638 213 1 0.5897 -6.484877210717559 2.7825892433867296 16.426259542715915 1 0 0
573 191 1 0.5897 -5.102841499709614 -0.20185823635023276 18.623682719920648 0 0 0
164 55 1 0.5897 -8.310351900003528 1.7089792702782218 18.61309822760263 1 0 -1
630 210 1 0.5897 -8.39890318325058 1.6758509880056667 16.362241752172345 1 0 0
20 7 1 0.5897 -5.531911195112169 2.312455487814914 18.763002203725694 0 0 -1
629 210 1 0.5897 -8.629440678258675 3.1473134449809392 16.633485201172338 1 0 0
601 201 2 -1.1794 -7.173360484673772 5.047729640668331 19.0123936500153 1 0 0
603 201 1 0.5897 -6.582503003776638 4.2948953203203715 19.029875199947043 1 0 0
101 34 1 0.5897 -8.973300381219854 4.65148470447156 19.206007621376234 1 0 -1
187 63 2 -1.1794 0.8954560675272241 10.303850221444273 0.5662358395429505 0 0 0
146 49 1 0.5897 -1.2295397443813953 6.3810599593015125 2.2465070740827002 1 0 0
112 38 2 -1.1794 -3.0275132858624563 5.8862899132225905 2.5424857200091218 1 0 0
289 97 2 -1.1794 -2.6362995922174703 9.703691100643992 2.681856197776442 1 0 0
145 49 2 -1.1794 -0.5800924732565198 6.767938700522892 1.6594073027539176 1 0 0
255 85 1 0.5897 -2.020698996399763 8.971905662983144 4.207628172838508 1 0 0
147 49 1 0.5897 -1.0832705316744682 7.362893744760415 1.1035378809239735 1 0 0
332 111 1 0.5897 -2.280732298964782 9.09637826193605 1.0977335435907811 1 0 0
331 111 2 -1.1794 -1.9881905401877622 8.654329708111092 0.3007575438400893 1 0 0
290 97 1 0.5897 -2.0028349728989157 10.384514708100252 2.908631944987036 1 0 0
291 97 1 0.5897 -3.485845798229514 10.14252519308039 2.7246977304446682 1 0 0
224 75 1 0.5897 -0.19762589527329943 10.842743200916585 4.017369891336532 0 0 0
293 98 1 0.5897 -3.8754834869226418 10.400186853394787 7.0469592141351365 1 0 0
109 37 2 -1.1794 -3.9228492085536666 6.668526186955919 7.1153286408179754 1 0 0
837 279 1 0.5897 -6.046314331720863 8.364512836424073 9.056624104681525 1 0 0
294 98 1 0.5897 -4.8736198869207215 9.79193812794904 8.008934557271354 1 0 0
301 101 2 -1.1794 -2.189731004990062 10.584891903866241 6.79427669536432 1 0 0
236 79 1 0.5897 -2.5413166166308105 7.280182940088926 7.934692815132719 0 0 0
292 98 2 -1.1794 -4.813640097535718 10.262665364314635 7.177695770434998 1 0 0
302 101 1 0.5897 -1.931541554480011 9.824213331486247 6.273781595279393 1 0 0
111 37 1 0.5897 -4.840987747726819 6.920437721956911 7.213919452978756 1 0 0
257 86 1 0.5897 -4.07871326819748 8.208764065073217 4.883493837051944 1 0 0
237 79 1 0.5897 -2.058724475006885 8.28788466095417 8.956176823003597 0 0 0
110 37 1 0.5897 -3.888103519827 6.212407076905944 6.274547457434176 1 0 0
235 79 2 -1.1794 -1.7862827504633203 7.504418579197867 8.47857240525987 0 0 0
303 101 1 0.5897 -1.3635568494896102 11.010229683350122 7.0238712504802505 1 0 0
7 3 2 -1.1794 -0.7465615629409896 6.204727944438261 4.900006062978913 0 0 0
253 85 2 -1.1794 -2.0633668317869924 8.509631553855238 5.044658974184019 1 0 0
254 85 1 0.5897 -1.508160625032054 7.739617343409557 4.922163936103101 1 0 0
258 86 1 0.5897 -5.08029097873064 8.856402834485998 5.815729203307524 1 0 0
8 3 1 0.5897 -0.8389516840067008 5.750764081023795 5.7375804005993345 0 0 0
835 279 2 -1.1794 -5.565667578223424 9.024038695291749 9.556847060168076 1 0 0
650 217 1 0.5897 -3.2298396446101822 7.446953726301701 11.382940901051265 1 0 0
836 279 1 0.5897 -4.795665648442031 8.560940103671143 9.88669928860701 1 0 0
513 171 1 0.5897 -3.7578554335892216 5.992256156033302 13.819927810573327 0 0 0
616 206 2 -1.1794 -6.293825167456227 6.207995558683016 11.823841718616796 1 0 0
649 217 2 -1.1794 -3.8854253746258056 7.063689356728562 10.800278712216757 1 0 0
794 265 1 0.5897 -4.847702172657662 10.444238213199029 12.211628416806489 1 0 0
651 217 1 0.5897 -4.604674057556807 6.813255488948135 11.380016976135233 1 0 0
795 265 1 0.5897 -5.669048916846454 9.682813427990201 11.193120095185147 1 0 0
793 265 2 -1.1794 -5.6312656442912195 9.901510217616163 12.124187786459473 1 0 0
759 253 1 0.5897 -5.485612955069284 9.054768320302154 13.671004546644678 1 0 0
617 206 1 0.5897 -6.915103919838087 6.925948362086638 11.702417969737755 1 0 0
663 221 1 0.5897 -6.834766034292297 5.658500489661443 13.616505112638547 1 0 0
691 231 2 -1.1794 -2.130845215554904 9.88758593936215 10.105306614428468 0 0 0
618 206 1 0.5897 -6.4353529962081115 5.637722948159338 11.068236923700896 1 0 0
809 270 1 0.5897 -7.1315836472417455 10.576500302858905 12.695868084242267 1 0 0
739 247 2 -1.1794 -5.487041010579703 8.163326597986785 17.542047219722637 0 0 0
797 266 1 0.5897 -6.923371087734444 10.30837066077264 16.91189065715157 1 0 0
805 269 2 -1.1794 -5.418949737831261 11.021968038542607 15.959139671193874 1 0 0
613 205 2 -1.1794 -7.262644150716728 6.4156079015882055 16.69675206215626 1 0 0
796 266 2 -1.1794 -7.7494601095576625 9.928011464486223 17.21034770460884 1 0 0
741 247 1 0.5897 -6.000386202277719 8.875637363997823 17.92316370241825 0 0 0
798 266 1 0.5897 -7.997314156474271 9.317509598517468 16.516046831064667 1 0 0
740 247 1 0.5897 -6.134468361335863 7.603405533074417 17.113641548358544 0 0 0
762 254 1 0.5897 -7.4013896458227375 8.571863303267326 14.685952142805082 1 0 0
333 111 1 0.5897 -8.125479440738122 9.33252813409883 19.094803123456813 1 0 -1
758 253 1 0.5897 -5.281524003124995 9.104524366059106 15.170174948963323 1 0 0
511 171 2 -1.1794 -3.697683154185034 6.567514968979158 14.58258335905975 0 0 0
512 171 1 0.5897 -4.425486543511033 7.180484879633236 14.478877562904412 0 0 0
757 253 2 -1.1794 -5.688745741209681 8.582898283061644 14.478613444063015 1 0 0
615 205 1 0.5897 -7.31030382111439 5.866949805337652 15.913881406979367 1 0 0
614 205 1 0.5897 -7.15474104943205 5.7956585937734895 17.41799913557002 1 0 0
771 257 1 0.5897 -0.1728791055086627 11.689016436280257 -0.012221762506814254 1 0 1
280 94 2 -1.1794 -2.8508784395856894 13.76128883927312 2.784982401744946 1 0 0
314 105 1 0.5897 -1.3570441740069947 14.73660336292922 1.9198309605006179 1 0 0
423 141 1 0.5897 -2.412342199406214 16.697911735987038 3.837872603156697 1 0 0
223 75 2 -1.1794 -0.7267996454366381 11.424665645555521 3.471920188960201 0 0 0
282 94 1 0.5897 -2.951203462576799 13.330892752155435 3.6339969726860013 1 0 0
313 105 2 -1.1794 -0.4338395980192913 14.953584399412167 1.7903362260169293 1 0 0
315 105 1 0.5897 -0.08365797445719014 14.220250706786025 1.28457657012087 1 0 0
225 75 1 0.5897 -0.7543052327665078 12.249295909690867 3.957155008625273 0 0 0
281 94 1 0.5897 -2.910395495579315 13.05022559924632 2.1469817557034783 1 0 0
500 167 1 0.5897 -1.4068502021165632 15.925463434443671 0.34930457145687216 1 0 0
270 90 1 0.5897 -2.517824124791092 12.354364401794053 0.30696974940642346 1 0 0
499 167 2 -1.1794 -2.1474212369043415 16.460010513989296 0.06298893735139327 1 0 0
769 257 2 -1.1794 -0.6907935639273606 12.491259186707358 -0.0784187121108976 1 0 1
421 141 2 -1.1794 -2.174269795999983 16.30338921771362 4.676815076056907 1 0 0
404 135 1 0.5897 -1.3362978864143193 15.452088059584945 7.501299749422021 0 0 0
403 135 2 -1.1794 -2.2008354245441017 15.432763275571837 7.911565187135502 0 0 0
327 109 1 0.5897 -4.077098211698507 12.748039981281 5.78614127231614 1 0 0
267 89 1 0.5897 -3.7287426965880788 12.38912414096245 8.751382669268224 1 0 0
277 93 2 -1.1794 -4.393620977883808 13.689155767598482 7.376287158020775 1 0 0
278 93 1 0.5897 -3.8266164334975796 14.455218865853901 7.465113366679078 1 0 0
279 93 1 0.5897 -5.263240846254275 14.00447883610849 7.622197131531033 1 0 0
405 135 1 0.5897 -2.2088259014647544 16.194947904611762 8.490532113173511 0 0 0
1004 335 1 0.5897 -5.027488665180546 16.600420808736963 9.05531476430639 1 0 0
326 109 1 0.5897 -3.0390398050724277 11.711279042516361 5.412864912843403 1 0 0
176 59 1 0.5897 -1.2039265681409252 14.823897210785864 5.1001304415152475 0 0 0
774 258 1 0.5897 -5.839343314980825 11.696912506584878 9.49354228283494 1 0 0
175 59 2 -1.1794 -0.726326385960077 14.020887760094165 5.308192697262165 0 0 0
325 109 2 -1.1794 -3.653229400215608 12.338780140449924 5.031823300943299 1 0 0
462 154 1 0.5897 -4.942700428961105 16.872808680818714 6.777805178826476 1 0 0
425 142 1 0.5897 -4.032363281075579 15.92052424333692 4.912158708774389 1 0 0
926 309 1 0.5897 -4.939904537228653 15.464171590549338 14.266380399621058 1 0 0
819 273 1 0.5897 -3.559799080974869 13.472726009326585 10.827100130444391 1 0 0
729 243 1 0.5897 -3.9890387413392765 12.320084457313527 13.698258798683298 0 0 0
925 309 2 -1.1794 -5.560078538306079 16.167809096310414 14.075392500699481 1 0 0
818 273 1 0.5897 -4.450780070826196 14.188407012364328 11.819858764481737 1 0 0
784 262 2 -1.1794 -6.540485349620642 13.621219259076872 11.638770162524626 1 0 0
831 277 1 0.5897 -7.46447042954277 12.453345336237021 14.138327747822014 1 0 0
786 262 1 0.5897 -6.629071414488643 13.266231487161203 12.523229399933268 1 0 0
817 273 2 -1.1794 -3.7251633256090333 14.333071611445606 11.212672680564859 1 0 0
727 243 2 -1.1794 -3.683944836319311 11.64312117979492 13.09424544598932 0 0 0
1005 335 1 0.5897 -4.479632214210572 15.590637447155022 10.041184869874924 1 0 0
728 243 1 0.5897 -3.091103115712671 12.102023970057598 12.499180900283864 0 0 0
829 277 2 -1.1794 -6.732473641321269 13.057935425305176 14.26026035822577 1 0 0
1003 335 2 -1.1794 -5.28823558059415 16.03043260920192 9.778709236982246 1 0 0
265 89 2 -1.1794 -3.8285569894958758 12.120169629131256 9.664526858586418 1 0 0
266 89 1 0.5897 -3.263076233925773 11.35283720529197 9.751896709513069 1 0 0
907 303 2 -1.1794 -5.4327530374096735 15.335910714471446 18.2861420052219 0 0 0
782 261 1 0.5897 -8.133177281321693 14.209349677664031 17.18217190737815 1 0 0
770 257 1 0.5897 -6.9575733447619434 12.735001448530255 18.40273835189198 1 0 0
807 269 1 0.5897 -4.864467279378088 11.505799422477724 16.571220945881347 1 0 0
783 261 1 0.5897 -6.687938452246074 14.598239373877048 17.40960722789781 1 0 0
781 261 2 -1.1794 -7.2411549455283355 14.004410627807946 16.902142355944893 1 0 0
830 277 1 0.5897 -7.018946458606354 13.643416557345295 14.961204532241416 1 0 0
679 227 2 -1.1794 -3.7534247550014 13.993533191953814 14.678850174919768 0 0 0
501 167 1 0.5897 -8.215022889788326 16.83932451640182 18.644906634256227 1 0 -1
927 309 1 0.5897 -5.35189476708204 16.850835976785365 14.712841031764615 1 0 0
908 303 1 0.5897 -4.913073970045277 15.76590191328065 17.607024835769106 0 0 0
909 303 1 0.5897 -4.8897916944734465 14.602720334134224 18.575675062182384 0 0 0
965 322 1 0.5897 -7.742832512197162 16.96687744933164 16.216679937141336 1 0 0
806 269 1 0.5897 -5.80476242023167 11.69649264343303 15.400251218859397 1 0 0
930 310 1 0.5897 -7.356067333709535 15.84390436199617 14.47379021084951 1 0 0
457 153 2 -1.1794 -2.9183726506815066 17.563184913128726 2.419037798553184 1 0 0
391 131 2 -1.1794 -0.8643918182505148 19.48335853296679 3.293337381004905 0 0 0
355 119 2 -1.1794 1.0023201697828537 17.93573341875651 0.4476766856418908 0 0 0
481 161 2 -1.1794 -0.7419223180111283 22.013442001418888 1.5533013525458432 1 0 0
495 165 1 0.5897 -3.405643183945501 20.95745763966253 4.160464945224822 1 0 0
448 150 2 -1.1794 -3.304052717530272 21.512127199528642 2.4164990648381215 1 0 0
458 153 1 0.5897 -2.6072558289301546 17.173701660116148 1.6019431247140397 1 0 0
449 150 1 0.5897 -3.504381288143575 20.886563217059585 1.7202692957175765 1 0 0
393 131 1 0.5897 -0.9492796258953105 20.243898027830923 3.868262732129375 0 0 0
459 153 1 0.5897 -2.43681958326041 18.387316620248598 2.490703834443731 1 0 0
483 161 1 0.5897 -1.5135975932626022 21.69353457230632 2.020534052443097 1 0 0
938 313 1 0.5897 -0.6920398897162974 20.512309402554994 0.4072709503591449 1 0 1
392 131 1 0.5897 -0.31991275125689533 18.869489106366757 3.786141285472342 0 0 0
356 119 1 0.5897 1.0895649602734458 17.130996411966613 -0.06319385732113372 0 0 0
482 161 1 0.5897 -1.0662345589311184 22.74328532716352 1.0257123669575368 1 0 0
450 150 1 0.5897 -3.8588074162348738 22.26863858291073 2.226379237588592 1 0 0
345 115 1 0.5897 -1.446343047342657 22.36878298279627 4.6746630357786225 0 0 0
344 115 1 0.5897 -0.9923509579252432 21.479809658717855 5.812800930937597 0 0 0
494 165 1 0.5897 -3.6018696621265915 20.957005833116643 5.661483996791798 1 0 0
471 157 1 0.5897 -3.201385254633442 17.973794281281766 7.003483543569764 1 0 0
470 157 1 0.5897 -2.7696601218508015 19.010210312248237 5.9879961772666865 1 0 0
445 149 2 -1.1794 -3.9326402587629 21.97043275938277 7.28276728745102 1 0 0
446 149 1 0.5897 -3.744931697914274 21.357780374834203 7.993816386120326 1 0 0
460 154 2 -1.1794 -4.814438032563468 17.506986165828206 7.483179457258797 1 0 0
469 157 2 -1.1794 -2.437700427791462 18.285550708157835 6.517940279216579 1 0 0
447 149 1 0.5897 -4.884045371633075 22.07371262396176 7.2998748134293265 1 0 0
343 115 2 -1.1794 -0.7878114945869283 21.714383248345012 4.907663689864006 0 0 0
433 145 2 -1.1794 -3.4922889403606616 20.10688257481801 9.524464115774917 1 0 0
422 141 1 0.5897 -2.1520708884214907 17.038188731631532 5.289819384218959 1 0 0
493 165 2 -1.1794 -3.6080318844804613 20.380873054751678 4.8971653935516395 1 0 0
461 154 1 0.5897 -5.523303991589456 18.13990303789608 7.368757282683946 1 0 0
380 127 1 0.5897 -1.0440650713514663 19.367031517980358 7.1571296322648035 0 0 0
897 299 1 0.5897 -3.710709233607427 18.72217628359944 13.738435449261729 0 0 0
963 321 1 0.5897 -5.339319900171234 17.199739552425676 11.088489755847094 1 0 0
434 145 1 0.5897 -3.3447082595545945 20.72226372772221 10.242591876494334 1 0 0
954 318 1 0.5897 -5.201585142939585 21.800953679835008 11.977972326356287 1 0 0
985 329 2 -1.1794 -3.5880731178509664 22.24130887188404 11.395242136534383 1 0 0
896 299 1 0.5897 -4.462398631013269 19.0123606197512 12.456871748090483 0 0 0
961 321 2 -1.1794 -5.590644692779313 17.738810838033455 11.83841936987103 1 0 0
998 333 1 0.5897 -6.486327012324681 20.719911484460596 13.707112022618759 1 0 0
952 318 2 -1.1794 -6.074639137286778 21.490968054865878 12.218454520562464 1 0 0
895 299 2 -1.1794 -3.8221674446635228 19.388800804254707 13.060666388440163 0 0 0
953 318 1 0.5897 -6.642470898419997 22.25102402912391 12.091743661243575 1 0 0
848 283 1 0.5897 -4.0006262523123794 21.048059312150123 13.974193883328015 0 0 0
860 287 1 0.5897 -2.64955512706566 18.493270826667807 9.662949337675682 0 0 0
859 287 2 -1.1794 -2.2479565482624557 17.624766423064628 9.68815691315873 0 0 0
941 314 1 0.5897 -6.3309881008954 20.174948309507652 10.646431265796908 1 0 0
962 321 1 0.5897 -5.503066604859752 17.156213010300505 12.592784170284018 1 0 0
940 314 2 -1.1794 -6.223631856819148 19.78636003962467 9.778314900744771 1 0 0
978 326 1 0.5897 -7.55999358108927 18.88286211709973 13.456728457426118 1 0 0
435 145 1 0.5897 -4.388354224180505 19.79657005584016 9.65460288186196 1 0 0
999 333 1 0.5897 -6.033878758256744 19.81561123122598 14.833733541971867 1 0 0
939 313 1 0.5897 -6.6083992274327805 19.244303379414422 19.049370339083058 1 0 0
964 322 2 -1.1794 -7.628423652559032 17.508047224103667 16.997841637401226 1 0 0
974 325 1 0.5897 -6.0693892026035465 18.010992999751068 16.181123746476512 1 0 0
973 325 2 -1.1794 -5.2723328783289745 18.241537782223944 15.7039419593109 1 0 0
949 317 2 -1.1794 -7.580966127548282 21.98501912627047 16.86661118957258 1 0 0
950 317 1 0.5897 -7.447672681206029 21.38820158104419 16.13025521104554 1 0 0
951 317 1 0.5897 -7.3635175456533535 21.464402961318203 17.639810490699038 1 0 0
975 325 1 0.5897 -4.80575945956407 18.837579852289323 16.289815017022132 1 0 0
966 322 1 0.5897 -8.276836181586315 18.20580378713634 16.903519728940218 1 0 0
997 333 2 -1.1794 -6.792991768331371 20.30149701745369 14.51149716859228 1 0 0
847 283 2 -1.1794 -3.960346137683308 21.677262679438336 14.694379760057005 0 0 0
937 313 2 -1.1794 -7.184590672642256 20.00521633553996 18.977102356780197 1 0 0
437 146 1 0.5897 -9.295563899948121 19.501229940874175 19.227953492085785 1 0 -1
78 26 1 0.5897 0.46369588223401337 2.635824348304078 4.595216706988989 0 0 0
54 18 1 0.5897 3.4091003796977155 3.770467503824818 2.956924590274463 0 0 0
31 11 2 -1.1794 1.0971090870233509 0.9932451002970044 2.278908504497476 0 0 0
32 11 1 0.5897 1.146051008204358 1.319059742054246 3.1775523439215387 0 0 0
52 18 2 -1.1794 3.696537701481443 2.9337846122993287 3.322331798254675 0 0 0
53 18 1 0.5897 4.493875597662568 2.7213317653159677 2.8373184091801007 0 0 0
47 16 1 0.5897 2.28797696326534 5.312496454318408 1.3315683118751171 0 0 0
46 16 2 -1.1794 2.127759554236097 4.984912881285689 2.2165320735398013 0 0 0
70 24 2 -1.1794 3.5609109894561906 0.4531729509572401 1.31739963924528 0 0 0
528 176 1 0.5897 3.9379804775478418 1.9136687492892976 0.2922426276837378 0 0 1
72 24 1 0.5897 4.101952198608368 -0.021113979575551445 1.9486625139137685 0 0 0
71 24 1 0.5897 2.733306181687121 0.6019896217238506 1.7746415849102433 0 0 0
16 6 2 -1.1794 5.41680783004302 4.864286608224841 0.23619830028294975 0 0 0
33 11 1 0.5897 0.6556254113958637 0.1472621164160301 2.354032956077069 0 0 0
6 2 1 0.5897 3.6072057631742904 1.6209666623691155 4.451784789978966 0 0 0
57 19 1 0.5897 0.46922185786894044 3.9991422254992726 2.774538081285891 0 0 0
18 6 1 0.5897 4.89867092934049 4.079909265623615 0.05584185586306625 0 0 0
527 176 1 0.5897 2.923315917181082 2.986082506816992 -0.04265558121189926 0 0 1
44 15 1 0.5897 -0.08856601067373449 4.950569710466496 8.14165623122174 0 0 0
45 15 1 0.5897 0.794642820884012 4.605442930468859 6.961642154431038 0 0 0
59 20 1 0.5897 2.0033480700457797 3.181549316697165 5.67514667535069 0 0 0
34 12 2 -1.1794 0.49716774407801756 1.5840146029342024 7.621838829301218 0 0 0
35 12 1 0.5897 0.597230039458958 2.214030231201924 8.335468157632958 0 0 0
43 15 2 -1.1794 -0.1226894515730419 4.692271822063856 7.220645282600325 0 0 0
58 20 2 -1.1794 2.2783144700255793 4.041012375532266 5.9944163794015175 0 0 0
77 26 1 0.5897 0.5457274161035723 1.8097152291764045 5.861122738692495 0 0 0
60 20 1 0.5897 2.8732330168995173 3.8487088358205472 6.719145919896065 0 0 0
522 174 1 0.5897 2.237360717526812 5.2769811411650585 9.19059648366621 0 0 0
36 12 1 0.5897 -0.3750155986979382 1.21149308979233 7.751075049378711 0 0 0
4 2 2 -1.1794 3.85611591123676 0.9323866611989688 5.068296494468469 0 0 0
5 2 1 0.5897 3.1041331660590403 0.34036416201310393 5.083316676355381 0 0 0
402 134 1 0.5897 1.521196554461632 -0.046436242184830945 8.09301275687647 0 1 0
76 26 2 -1.1794 0.8800375596278052 1.8575456818070397 4.965536411819817 0 0 0
535 179 2 -1.1794 -1.8062243214353417 1.1816498641840467 12.363210150953973 0 0 0
536 179 1 0.5897 -2.120194564477158 1.7493175620177688 13.066999567937941 0 0 0
550 184 2 -1.1794 -1.319570369874866 4.844869954286935 11.915526748102813 0 0 0
558 186 1 0.5897 -0.09701656267456915 3.965101823852314 13.029884162578279 0 0 0
537 179 1 0.5897 -1.839557507102703 1.7302312433897773 11.579568580275506 0 0 0
556 186 2 -1.1794 0.6660353543057127 3.6144316502190508 13.489165067033433 0 0 0
575 192 1 0.5897 -0.0003001427934528067 0.4861803437859442 12.274312153428335 0 0 0
557 186 1 0.5897 0.41003820768585175 2.7257788284606095 13.73615156948012 0 0 0
552 184 1 0.5897 -2.186386199649207 4.591981310453517 12.233034176716002 0 0 0
574 192 2 -1.1794 0.7534035268785861 0.34280502235870725 11.702038447569578 0 0 0
23 8 1 0.5897 0.8412647178910033 2.16712083605897 10.866502828331132 0 0 0
587 196 1 0.5897 -0.605612225161821 5.318831829246525 10.277932563626196 0 0 0
525 175 1 0.5897 -1.355485633009991 2.823865770685011 9.889601902238581 0 0 0
24 8 1 0.5897 1.3211713258062971 3.3344017419598257 10.030489220399007 0 0 0
22 8 2 -1.1794 0.6045290361460496 2.7050094702433456 10.111004352279819 0 0 0
576 192 1 0.5897 0.39161372714902587 -0.10217534436436164 10.935707993269885 0 0 0
539 180 1 0.5897 -2.829653253640701 1.7353199998121882 17.419848897622746 0 0 0
563 188 1 0.5897 -0.7646942248250621 4.749884034771168 15.603533779752627 0 0 0
508 170 2 -1.1794 0.7300562789683029 1.01464084363371 14.791387438151242 0 0 0
564 188 1 0.5897 -1.5856358240642638 4.268528815661555 16.780834263906304 0 0 0
562 188 2 -1.1794 -0.7976511061361382 4.069011232503797 16.275472906046545 0 0 0
538 180 2 -1.1794 -3.165126828363282 1.080357905324665 16.807733029624586 0 0 0
547 183 2 -1.1794 -3.4489804875322907 4.878768869443308 16.863694223958493 0 0 0
581 194 1 0.5897 -3.0591290839422003 2.0448521418891876 15.27354818143439 0 0 0
526 176 2 -1.1794 -2.5654768200336173 2.6472528759289498 19.126908622987404 0 0 0
540 180 1 0.5897 -3.989688032763663 0.7886112927265736 17.19649632838659 0 0 0
582 194 1 0.5897 -1.7980710550092809 2.7971885919780264 14.905438250756017 0 0 0
548 183 1 0.5897 -3.383922813956847 5.489448067844662 16.129523336246706 0 0 0
580 194 2 -1.1794 -2.62022648427277 2.4724959096583614 14.538264391602068 0 0 0
549 183 1 0.5897 -4.151851514601245 4.2784842377454515 16.615021477691798 0 0 0
221 74 1 0.5897 4.343856669802484 10.671721837087174 3.0429437228735843 0 0 0
240 80 1 0.5897 3.407288639120428 7.4218331813186715 0.5465856131235538 0 0 0
174 58 1 0.5897 3.7068258623760757 9.116683415184788 4.435407819856082 0 0 0
199 67 2 -1.1794 1.2601489086398336 8.49462972477408 2.608450149137024 0 0 0
238 80 2 -1.1794 3.597764265339376 8.124504465912022 1.1680124858673389 0 0 0
10 4 2 -1.1794 1.9994550221095508 6.473674237214455 4.5459866738232115 0 0 0
239 80 1 0.5897 3.744777995001864 8.895805117257835 0.6205842844884032 0 0 0
201 67 1 0.5897 2.0558048812390233 8.268191065027116 2.127012483903045 0 0 0
245 82 1 0.5897 1.3265018194993692 9.333685304737488 4.28224947003091 0 0 0
220 74 2 -1.1794 3.5351601772429975 10.917854906093087 3.491899571221641 0 0 0
200 67 1 0.5897 0.5847147582639103 7.927921032122223 2.235841643228331 0 0 0
188 63 1 0.5897 1.7481130099038609 10.186626174846372 0.14745633361654603 0 0 0
189 63 1 0.5897 0.9224685125373249 9.728542611634452 1.3307371101036356 0 0 0
29 10 1 0.5897 4.9125183845337865 7.260503289096209 2.1788589210344593 0 0 0
48 16 1 0.5897 2.1616310042110847 5.764574835982259 2.770785514974487 0 0 0
222 74 1 0.5897 2.97634093835077 11.274489499539731 2.801476679377901 0 0 0
64 22 2 -1.1794 2.348038964614899 6.678568833025614 7.894741284751895 0 0 0
203 68 1 0.5897 -0.4130265266911386 7.936808233232643 7.390984095579572 0 0 0
244 82 2 -1.1794 0.9245882139276294 9.86954790182489 4.965916628025375 0 0 0
202 68 2 -1.1794 0.4201574569450348 8.300191219650637 7.091134290118158 0 0 0
246 82 1 0.5897 0.8607695629387733 9.28583477012478 5.721807685951639 0 0 0
191 64 1 0.5897 0.6030274013190269 9.438379827005514 8.564031987595483 0 0 0
204 68 1 0.5897 1.0683321536017338 7.633555151942205 7.318385801486202 0 0 0
588 196 1 0.5897 -0.6434753257186547 6.488038948579745 9.31704456821087 0 0 0
65 22 1 0.5897 2.5379599732418123 7.409740138868628 8.482523418954155 0 0 0
66 22 1 0.5897 3.191074842867339 6.468067062706216 7.493355289807511 0 0 0
172 58 2 -1.1794 3.962035434306502 8.303190227681553 4.87050279764559 0 0 0
228 76 1 0.5897 2.062896532563049 10.992666504382557 5.758836087977093 0 0 0
192 64 1 0.5897 1.1236273831636883 10.555045416391954 9.443749525918008 0 0 0
11 4 1 0.5897 2.2679804978086553 5.680867923064752 5.010266421077876 0 0 0
190 64 2 -1.1794 0.5205526336606932 9.81172478130649 9.441509992979075 0 0 0
173 58 1 0.5897 3.18982258924056 7.741783098102844 4.801840096629479 0 0 0
12 4 1 0.5897 1.0806052502510504 6.59278041032674 4.786086550919739 0 0 0
693 231 1 0.5897 -2.0244343489176497 9.35536674928777 10.893703219712176 0 0 0
744 248 1 0.5897 0.4665587969753311 7.1365614645083335 10.780661832496154 0 0 0
724 242 2 -1.1794 0.6994523067711746 10.616288597082013 12.861585122584355 0 0 0
742 248 2 -1.1794 0.7151904501413613 7.87882227920478 11.3315104120365 0 0 0
705 235 1 0.5897 -1.912290058312399 8.954418210548603 13.164468891879013 0 0 0
743 248 1 0.5897 0.8149321154405555 8.608600092701105 10.720228746519682 0 0 0
704 235 1 0.5897 -0.8862643305798095 8.30054943788114 12.26367914439756 0 0 0
703 235 2 -1.1794 -1.829358527730503 8.421352522223012 12.373818430343167 0 0 0
726 242 1 0.5897 -0.08552195620135805 11.052987350798073 12.531026897168417 0 0 0
678 226 1 0.5897 0.5691775294995995 9.12623794929296 13.917799914536353 0 0 0
586 196 2 -1.1794 -0.07211096044394605 5.790574507038675 9.638413077594993 0 0 0
692 231 1 0.5897 -1.250776136482541 10.211669400631227 9.913949222431063 0 0 0
750 250 1 0.5897 -2.71969484948072 10.635071891434233 14.34019029124938 0 0 0
551 184 1 0.5897 -1.0600996333224586 5.5728326724804225 12.48026151753896 0 0 0
514 172 2 -1.1794 -0.9305617143651173 6.055428922255833 14.406427863445034 0 0 0
725 242 1 0.5897 1.0136397220753963 11.186339099747563 13.56338087321915 0 0 0
516 172 1 0.5897 -0.3239783878675597 6.795565686685703 14.384687582747013 0 0 0
568 190 2 -1.1794 -1.0603919158579345 7.181897491620519 18.09647089568414 0 0 0
749 250 1 0.5897 -2.2915983450918223 9.660852411728477 15.416940975684415 0 0 0
706 236 2 -1.1794 -2.900742861273156 8.921735865651723 16.812135370478853 0 0 0
695 232 1 0.5897 -2.653704769883589 10.233238365515579 18.184038847767376 0 0 0