LAMMPS data file via write_data, version 30 Jul 2021, timestep = 9750000

864 atoms
2 atom types
576 bonds
1 bond types
288 angles
1 angle types

0.6920914243855982 17.515480975603158 xlo xhi
1.9067235501251485 21.722454249873458 ylo yhi
0.844349921210279 21.3688458787906 zlo zhi

Masses

1 1.00794
2 15.9994

Pair Coeffs # lj/cut/tip4p/long/omp

1 0 0
2 0.21084 3.1668

Bond Coeffs # harmonic/omp

1 450 0.9572

Angle Coeffs # harmonic/omp

1 55 104.52

Atoms # full

241 1 2 -1.1794 1.0016132836778515 5.440586791116456 2.3441414470728965 -2 1 3
211 1 2 -1.1794 4.156794628331333 5.825319695548801 3.074913665056005 7 1 7
397 1 2 -1.1794 2.2611582288332324 4.722459698122337 5.242903195431703 6 4 -5
242 1 1 0.5897 1.4017282947218992 6.305430930478008 2.254322205406319 -2 1 3
660 1 1 0.5897 4.217897464390356 3.83621403281169 3.001759959943941 3 6 1
407 1 1 0.5897 3.606451035843242 3.708484227318644 0.9703847620191257 -5 -3 5
509 1 1 0.5897 2.253462946974879 2.7863176991509744 5.145044935122949 0 1 4
399 1 1 0.5897 3.0896573627469515 5.020589710469022 5.618230059114127 6 4 -5
398 1 1 0.5897 2.2509722970528583 5.091876865926158 4.3599795295070916 6 4 -5
212 1 1 0.5897 3.9982603234449376 6.30179400314795 2.260088138380653 7 1 7
213 1 1 0.5897 3.9263992740104903 6.447105285864996 3.765193074751801 7 1 7
658 1 2 -1.1794 4.259220900085532 3.027643702772969 2.4912644438544937 3 6 1
48 1 1 0.5897 2.059086644262349 5.814464090496123 8.706355410692307 1 -1 0
46 1 2 -1.1794 1.4262070200905235 5.199559663120939 8.335536588405933 1 -1 0
284 1 1 0.5897 3.857959555248599 2.643487521522832 8.24458289986889 8 0 0
75 1 1 0.5897 0.8948264428767102 6.16073018132358 6.893454750395305 1 -1 3
285 1 1 0.5897 3.4946297350946485 3.5825335760692556 9.374965194862572 8 0 0
283 1 2 -1.1794 3.186864487271089 3.265205127777987 8.526020239903595 8 0 0
47 1 1 0.5897 1.8933290569731764 4.364770844073684 8.303165301218293 1 -1 0
29 1 1 0.5897 4.693900256238031 6.3247280816272475 8.959915787331195 -8 0 4
28 1 2 -1.1794 3.8888969521340564 6.655551314675936 8.561624258880883 -8 0 4
674 1 1 0.5897 1.7572257576727024 2.0396686845813266 8.393428528520273 -4 -3 0
54 1 1 0.5897 4.775377155929241 4.708315536161881 6.807063558470058 -2 -1 3
52 1 2 -1.1794 4.851389991603787 5.229989921144307 6.008203497844515 -2 -1 3
764 1 1 0.5897 2.366642319206764 5.692392912095762 13.133653899987392 -5 1 -6
763 1 2 -1.1794 3.118011328292678 6.023353731440935 12.641651786768856 -5 1 -6
677 1 1 0.5897 4.262973280553442 5.932231090958889 15.68619464102831 0 2 -4
474 1 1 0.5897 2.1715901162955724 3.1055464875918686 11.566614448810503 3 2 -3
473 1 1 0.5897 2.9413969257395762 4.3651872980342965 11.90167688322537 3 2 -3
337 1 2 -1.1794 2.5594359232630755 2.787882552268589 15.833188596900056 -2 1 0
339 1 1 0.5897 1.9796355918360515 3.4533476764823465 15.462930681847576 -2 1 0
765 1 1 0.5897 2.7324117860328982 6.508332667300147 11.912106079639369 -5 1 -6
643 1 2 -1.1794 1.350382847617144 5.188671356738522 15.445210365861893 5 -1 -4
458 1 1 0.5897 4.12964512132598 2.373889998460933 12.779345731867432 6 3 -1
472 1 2 -1.1794 3.029782043206799 3.517338477743369 11.4664279929439 3 2 -3
338 1 1 0.5897 3.4329720421007774 3.1758300987900316 15.782879486785163 -2 1 0
644 1 1 0.5897 1.1062896893539425 6.10195634484264 15.295431506046686 5 -1 -4
238 1 2 -1.1794 0.7564342848328331 2.015464907986869 11.571996153426847 -5 -5 0
669 1 1 0.5897 2.7777440920421834 4.789025088679577 18.205719893645067 -10 0 1
7 1 2 -1.1794 3.4874289281898783 3.0361543494905865 18.380991705482842 4 -2 -1
630 1 1 0.5897 4.480818714915275 5.718522644517886 18.554205691198128 -4 -1 -2
8 1 1 0.5897 2.590899894781905 2.794922555225207 18.148300799400268 4 -2 -1
9 1 1 0.5897 3.42059995370912 3.3759355526259798 19.27328254569933 4 -2 -1
667 1 2 -1.1794 2.4642153072261674 5.647471976551577 17.92133654905421 -10 0 1
727 1 2 -1.1794 0.7937082054761038 3.0498354429109695 18.55853680208253 -1 1 0
668 1 1 0.5897 1.9576028568715185 5.976019833266105 18.66398443800655 -10 0 0
645 1 1 0.5897 1.682616923297898 5.17317543205105 16.342715531952848 5 -1 -4
406 1 2 -1.1794 3.0646398398311945 3.9721879427987443 20.75123520849973 -5 -3 4
168 1 1 0.5897 4.326576942372363 6.670707361660363 20.818484787888856 1 -1 7
559 1 2 -1.1794 1.302892778579996 6.85264797979766 20.038818173255187 -1 3 3
408 1 1 0.5897 2.3787819289346444 4.5180342575657555 21.135634241142498 -5 -3 4
186 1 1 0.5897 1.770630291308274 2.26008440837053 21.149636781658472 0 9 4
811 1 2 -1.1794 3.378581861925521 7.456842611670464 5.119897894847969 -10 4 -1
787 1 2 -1.1794 4.008207424511056 10.06095764434283 4.4760969195727105 4 1 11
789 1 1 0.5897 3.780184937109026 10.985016803239507 4.57731047762068 4 1 11
813 1 1 0.5897 3.7035891503569225 8.31200204443005 4.838517027522837 -10 4 -1
169 1 2 -1.1794 3.7966859232241577 9.722514931583836 1.7402074866142927 -6 3 -1
383 1 1 0.5897 1.1256527691286866 9.961701552555786 5.811009036107192 -6 -3 0
412 1 2 -1.1794 1.6056829082163782 11.360733234491082 2.075539151893828 -1 -2 7
788 1 1 0.5897 4.225814440215366 9.967662974692301 3.5487037023069945 4 1 11
171 1 1 0.5897 3.561488756541419 8.807356471717158 1.5876207976297394 -6 3 -1
384 1 1 0.5897 1.895035209627804 9.870984262013309 4.510453190214934 -6 -3 0
170 1 1 0.5897 2.9575850132130714 10.174380723687829 1.8286875448705766 -6 3 -1
382 1 2 -1.1794 1.0085671998820176 9.834642507618074 4.869599967716775 -6 -3 0
152 1 1 0.5897 0.7486059710849144 8.332201760277712 3.0703047173961395 5 3 -5
151 1 2 -1.1794 1.2725912929825043 8.147580788001019 2.290894325144458 5 3 -4
812 1 1 0.5897 4.116386485047505 7.060220075936502 5.582971377035217 -10 4 -1
153 1 1 0.5897 0.8154653897263089 8.59961838571358 1.5818129661661322 5 3 -4
414 1 1 0.5897 0.8890114530111533 11.50136977232262 2.6941702524308786 -1 -2 7
413 1 1 0.5897 1.2777458234411152 11.706938450073343 1.2456447798939534 -1 -2 7
74 1 1 0.5897 1.3063469685381242 7.121469839571215 5.798303385636789 1 -1 3
166 1 2 -1.1794 3.6811969666157185 7.057182964587571 0.8857973844541505 1 -1 8
568 1 2 -1.1794 4.048210294855059 10.86218327723142 10.359889033521158 5 1 0
256 1 2 -1.1794 1.8135434446892582 9.871405033139471 7.648006402467162 5 0 -1
740 1 1 0.5897 2.6359807531424204 7.437095880165879 9.884567967606737 1 -1 2
741 1 1 0.5897 1.1807548132620953 7.829259449546139 10.026413629417062 1 -1 2
30 1 1 0.5897 4.1608774255279855 7.441757693785602 8.088305153222043 -8 0 4
257 1 1 0.5897 1.272063085895562 9.146994383656057 7.961294604539891 5 0 -1
739 1 2 -1.1794 1.9612386551543606 7.618410323260495 10.538754087438702 1 -1 2
258 1 1 0.5897 2.7026392889206856 9.517176296264033 7.632359019545529 5 0 -1
44 1 1 0.5897 1.758505116700374 11.20449232224628 8.804751304478646 2 10 -3
569 1 1 0.5897 4.60700474399321 10.085117476845362 10.35579069115266 5 1 0
214 1 2 -1.1794 4.540694436618791 9.105394577882246 7.444238607883587 6 -3 -1
570 1 1 0.5897 3.25378192333063 10.584078640062852 10.81556833823215 5 1 0
155 1 1 0.5897 4.688319913013512 9.272780239951503 12.572863270143898 7 1 -1
676 1 2 -1.1794 4.240699812492091 6.874472596360972 15.519498167339004 0 2 -4
855 1 1 0.5897 1.5683222562731478 9.253833623864496 15.572994026869905 -5 1 1
753 1 1 0.5897 0.8923260731347152 10.168816967277609 13.444482536760662 3 -2 1
735 1 1 0.5897 1.7834100434916533 9.264580312007656 11.649192045860255 1 -1 -4
733 1 2 -1.1794 1.8198468007630064 10.183394993095346 11.914862893632318 1 -1 -4
678 1 1 0.5897 3.429640045494577 7.171959519801466 15.931551750364987 0 2 -4
156 1 1 0.5897 4.231970652902428 7.835793418286319 12.708423980259683 7 1 -1
362 1 1 0.5897 3.8144353459243527 11.406101985250636 13.684929196758748 3 -4 -1
154 1 2 -1.1794 4.648702745112793 8.443139560072542 12.09720330074098 7 1 -1
734 1 1 0.5897 1.165288483237145 10.61748975599907 11.36785749393042 1 -1 -4
361 1 2 -1.1794 4.647021157306034 11.000306837147123 13.443500089718482 3 -4 -1
854 1 1 0.5897 3.0361702330026215 9.435942525605434 15.895217065403134 -5 1 1
844 1 2 -1.1794 4.832361176313787 10.162112137467084 16.15196040357946 1 -2 6
853 1 2 -1.1794 2.309141629122168 8.821996539820194 15.998208964328867 -5 1 1
846 1 1 0.5897 4.879334174101507 9.858894425268996 15.245336560187543 1 -2 6
498 1 1 0.5897 1.838477031936562 11.759890489928532 16.10463133995831 4 2 0
830 1 1 0.5897 4.180668134898452 9.017637472781097 18.822791210797824 3 5 3
657 1 1 0.5897 2.247385435163393 10.225179422490676 18.790183291230854 -3 0 -1
656 1 1 0.5897 2.1413645004557385 9.062608542397411 17.826419546705395 -4 0 -1
655 1 2 -1.1794 2.2272113448976363 9.268826943863367 18.757160232833073 -4 0 -1
560 1 1 0.5897 1.2950882353202058 7.699915417589552 19.593636979199466 -1 3 3
496 1 2 -1.1794 1.3726631606433677 11.526135076794382 16.907444406623846 4 2 1
492 1 1 0.5897 4.317798754299522 10.779804244874873 20.877601997962543 3 2 4
167 1 1 0.5897 2.8522739799809154 6.993678828350562 20.935948249776033 1 -1 7
490 1 2 -1.1794 4.566218220334421 11.476588255670801 20.27023868380917 3 2 4
618 1 1 0.5897 1.9010418830999265 16.33452579544669 5.5614865449090205 1 2 -2
493 1 2 -1.1794 1.358073209826983 14.535690889284297 2.9763337731359942 -4 2 1
664 1 2 -1.1794 3.4591643253247364 12.68639378964947 4.873678075235306 1 0 2
292 1 2 -1.1794 3.7621306676148776 15.94111032140393 3.2040661586083767 -1 -2 3
495 1 1 0.5897 2.255308124832708 14.82537966311303 2.811562477085264 -4 2 1
494 1 1 0.5897 1.4109009810752886 13.580009473213867 2.9777160706235364 -4 2 1
665 1 1 0.5897 2.6972779744574518 12.779419996391617 5.445534286873883 1 0 2
616 1 2 -1.1794 1.3444828025523092 15.565089190205063 5.441834771610311 1 2 -2
666 1 1 0.5897 4.20476787765765 12.916620447666745 5.42791584127326 1 0 2
293 1 1 0.5897 4.1153256441750194 16.354037671688268 2.4161272445283895 -1 -2 3
617 1 1 0.5897 1.3875987156077119 15.381308123415954 4.503499938408682 1 2 -2
356 1 1 0.5897 4.304128181090558 13.051481608998742 3.2112333811851563 4 -5 5
672 1 1 0.5897 4.772013072747987 15.481807277447203 4.476180523291777 5 2 -1
294 1 1 0.5897 3.400262651617399 16.66622894000554 3.7133759451073995 -1 -2 3
301 1 2 -1.1794 3.969495080798522 15.396915623263189 7.607955663534486 0 4 5
43 1 2 -1.1794 1.5441006049593238 12.042450215338102 9.21464516406293 2 10 -3
417 1 1 0.5897 4.109930864993345 12.120010723667498 8.769049826481396 4 -4 -1
291 1 1 0.5897 2.467507531090446 13.237917285657065 10.2972690996535 -4 -4 -7
303 1 1 0.5897 4.06109455916823 14.44791913432472 7.692505626348423 0 4 5
302 1 1 0.5897 3.0289359893382914 15.555283515508709 7.687919509753638 0 4 5
244 1 2 -1.1794 1.2994909906653418 15.908151669855936 8.29196347601517 -3 0 -3
462 1 1 0.5897 2.5929267163592056 15.733077808133075 10.936628277385372 6 0 -1
432 1 1 0.5897 1.3197323745085177 12.73150136818753 7.49304028567998 -9 -3 1
69 1 1 0.5897 4.407422970056051 16.729178171624024 8.65292390462282 5 -4 -1
431 1 1 0.5897 0.9447403774969645 13.881509293814144 6.582857842966048 -9 -3 1
289 1 2 -1.1794 2.8623642795239723 13.883710774715105 10.88304844960282 -4 -4 -7
430 1 2 -1.1794 1.0623914744118061 12.931689999025231 6.593149000679314 -9 -3 1
415 1 2 -1.1794 4.417385502981572 12.601675882992739 8.001208396716564 4 -4 -1
290 1 1 0.5897 3.765184116810354 13.586120682042523 10.994660452861197 -4 -4 -7
110 1 1 0.5897 3.964216263895143 16.763479646604484 12.268851823281915 -4 0 -6
601 1 2 -1.1794 2.3883573776258222 12.347870439268865 14.450767504351433 1 5 3
279 1 1 0.5897 1.4142287056224756 13.672002285401057 12.580222751634098 0 3 -2
344 1 1 0.5897 3.2885398627094684 15.261967705002192 15.549630178220195 -2 5 -1
602 1 1 0.5897 2.8073992080832917 13.20370938023795 14.54056065004526 1 5 2
343 1 2 -1.1794 3.581812656594155 14.885349906298337 14.720021311032529 -2 5 -1
345 1 1 0.5897 3.734337925017959 15.6417809729438 14.153685130611741 -2 5 -1
460 1 2 -1.1794 2.6175572441818646 16.642917631338136 11.232763359598053 6 0 -1
603 1 1 0.5897 1.5538536753065706 12.533286066900489 14.020249756440199 1 5 3
309 1 1 0.5897 0.9085268233108778 16.13214286081028 15.035448921981308 1 3 -2
296 1 1 0.5897 4.892906047015595 12.471633976489656 12.281581979219315 2 5 -3
36 1 1 0.5897 4.514518027091835 15.13783136060732 20.78254233491173 -2 0 -2
634 1 2 -1.1794 3.9366475855688523 16.758476938743918 21.145084609072192 -11 2 6
253 1 2 -1.1794 2.9263695058174855 15.115784672891028 18.117964471241983 1 3 -7
491 1 1 0.5897 4.5057432742825405 12.279224967162587 20.78813808152632 3 2 4
254 1 1 0.5897 2.9519363998469816 15.142729995464334 19.07437856341263 1 3 -7
795 1 1 0.5897 2.073885530648244 13.346473520554511 19.859316215687763 -3 -2 4
794 1 1 0.5897 2.8883019424925447 12.098190847258191 19.594486096005745 -3 -2 4
255 1 1 0.5897 3.549164069961444 14.428874944341741 17.880517414143334 1 3 -7
427 1 2 -1.1794 4.715080288915127 12.857302270442107 17.042064236433518 0 4 -3
121 1 2 -1.1794 1.385106110445244 14.961050317989987 20.52862817374693 -2 0 1
793 1 2 -1.1794 2.0146665802234 12.47107213572754 19.47684003663933 -3 -2 4
428 1 1 0.5897 4.674067859201633 11.926634075171444 16.822306142878574 0 4 -3
497 1 1 0.5897 1.732501175563065 12.112366467153924 17.573031034949494 4 2 1
123 1 1 0.5897 1.420799813920068 15.580401773686647 21.257522469027194 -2 0 1
378 1 1 0.5897 2.7836719584802303 18.552713638348493 4.328478621130088 4 0 0
824 1 1 0.5897 2.3321489388349708 20.34970670481843 2.341347270393731 -6 5 2
825 1 1 0.5897 3.63862518528064 19.952187727652912 2.994580017343441 -6 5 2
376 1 2 -1.1794 2.8830840172855883 17.874920181937092 4.996922943439738 4 0 0
483 1 1 0.5897 0.906453296789107 17.42384547753018 2.5535120997050287 2 4 -1
823 1 2 -1.1794 2.7054654388434187 20.064842728597476 3.1753848804784837 -6 5 2
184 1 2 -1.1794 1.5563049865730099 21.272708550583538 1.09971394125524 0 8 5
510 1 1 0.5897 2.6133343536592752 21.301832479301446 4.458321429064535 0 0 4
377 1 1 0.5897 3.2004223249135975 18.343734124360694 5.768691690893405 4 0 0
481 1 2 -1.1794 1.1230382272446975 17.046846988616227 1.7008295995954785 2 4 -1
508 1 2 -1.1794 2.4324489546242596 21.678132201478284 5.319613688751684 0 0 4
200 1 1 0.5897 3.602093701886443 20.980103749586092 0.8749366453251497 -2 -3 2
839 1 1 0.5897 2.513262307322859 18.76832408690487 7.599420903879511 -2 -4 -1
233 1 1 0.5897 4.5966823562826296 20.455899102606182 10.335464666089312 -5 -1 3
840 1 1 0.5897 3.734285486779276 18.29576495106219 8.359288837280666 -2 -4 -1
673 1 2 -1.1794 0.9154588898252275 21.46996321193148 8.150553193745866 -4 -4 0
838 1 2 -1.1794 3.4696529301238703 18.75677506969143 7.563324528489256 -2 -4 -1
68 1 1 0.5897 3.959613955754682 17.10014798126006 10.050570320094733 5 -4 -1
360 1 1 0.5897 3.9864024372173454 21.609030459319342 6.344847807367265 6 -1 -3
706 1 2 -1.1794 0.8358023288330323 18.50302678968744 7.52922103175704 -3 -3 -11
67 1 2 -1.1794 4.648042818393462 17.267347619896576 9.40697247006963 5 -4 -1
675 1 1 0.5897 0.9748443456612479 21.34077512160868 7.20402259815746 -4 -4 0
358 1 2 -1.1794 4.572737157260249 21.299542620667168 7.035168321700687 6 -1 -3
359 1 1 0.5897 4.282133744586908 20.40525316553245 7.213772448106219 6 -1 -3
687 1 1 0.5897 1.9865503363495947 19.460471160210872 10.515543389081193 11 -5 0
685 1 2 -1.1794 2.7070660748556294 20.020538162752707 10.804242679665533 11 -5 0
686 1 1 0.5897 2.286998702102415 20.845229682132036 11.048270068317033 11 -5 0
246 1 1 0.5897 1.131889010741885 16.81976333593405 8.053232724209838 -3 0 -3
65 1 1 0.5897 1.7184435220252396 20.534260974526255 14.053802828269815 4 1 -2
66 1 1 0.5897 2.371377250969221 19.90444785270101 12.84194266972395 4 1 -2
459 1 1 0.5897 4.008908073793696 20.81476928044834 13.401321987019408 6 2 -1
64 1 2 -1.1794 2.4593797609503882 19.98815670147667 13.791347482032904 4 1 -2
835 1 2 -1.1794 4.767340709998588 19.115414896550988 15.352475078928034 -3 1 -3
836 1 1 0.5897 3.9692071549058694 19.461381795999593 14.953236809792317 -3 1 -3
772 1 2 -1.1794 2.1699752497357787 17.223257818086555 16.163824357584083 4 -2 3
774 1 1 0.5897 2.838355281028135 17.88707812244464 15.99438591021954 4 -2 3
457 1 2 -1.1794 4.646812044060844 21.49584785286021 13.18842032839977 6 2 -1
461 1 1 0.5897 1.7744063510512926 16.77730390199421 11.665479874027898 6 0 -1
557 1 1 0.5897 0.8105044060753239 18.150084442253522 15.272017122164044 0 3 1
109 1 2 -1.1794 4.670174669758184 16.926224816315994 12.894352705825028 -4 0 -6
88 1 2 -1.1794 1.6187076510366405 20.192013330430015 16.79747233527672 6 -6 5
330 1 1 0.5897 4.137142188755448 16.858614394480362 17.72676576650376 3 3 -1
191 1 1 0.5897 2.783878218389766 19.478098700481844 18.09100574727428 2 4 -6
201 1 1 0.5897 3.9995484756062685 20.407048968000687 20.055831057601885 -2 -3 1
199 1 2 -1.1794 4.358943445963755 20.83891561721392 20.83077744637206 -2 -3 1
192 1 1 0.5897 4.0496921593488 18.782579595587883 18.544404142027275 2 4 -6
190 1 2 -1.1794 3.365031895763263 19.380001126634966 18.845157680922355 2 4 -6
615 1 1 0.5897 4.424713876669406 21.56866574497797 17.37935288589818 -6 -3 3
114 1 1 0.5897 1.2083299701480539 17.031255876594088 19.00610931898308 -3 -2 3
635 1 1 0.5897 4.58805715569379 17.433606619082926 20.955422444223437 -11 2 6
773 1 1 0.5897 1.649743227828501 17.58426187807101 16.88155451071139 4 -2 3
185 1 1 0.5897 0.945428505365083 20.81059590235322 21.050284091919018 0 8 4
90 1 1 0.5897 1.963044245936141 21.066571199374316 16.61660142035973 6 -6 5
89 1 1 0.5897 0.7808632000516553 20.349311742207206 17.232691638256647 6 -6 5
636 1 1 0.5897 3.1009895303618413 17.2251535744709 21.147196670871942 -11 2 6
148 1 2 -1.1794 6.708749595785715 3.7124486193922386 4.523458743365593 -4 -1 3
164 1 1 0.5897 6.4741065515762735 4.2270185692235405 2.765042675603808 -1 5 -1
165 1 1 0.5897 6.25175094932392 4.2771742750093145 1.2685018003213797 -1 5 -1
150 1 1 0.5897 7.277134745987037 4.431857179057839 4.798270626763846 -4 -1 3
659 1 1 0.5897 5.0805848162749765 2.6160706757155743 2.759718924912101 3 6 1
62 1 1 0.5897 8.432863159889035 4.171345857695464 2.398516991894562 -9 1 5
163 1 2 -1.1794 6.713093787144948 4.720362446021612 1.9804368917678723 -1 5 -1
691 1 2 -1.1794 8.729982488802182 5.728034392901311 4.6040713705207885 3 -3 3
149 1 1 0.5897 7.206576471933144 2.9212614206985044 4.729173957677303 -4 -1 3
53 1 1 0.5897 5.195029638163049 4.620328110903934 5.35526389359102 -2 -1 3
597 1 1 0.5897 7.19659335721647 6.0845143072445715 0.905269924382431 1 -6 0
693 1 1 0.5897 8.863977119874129 6.5506691550561245 4.133494267364105 3 -3 3
42 1 1 0.5897 7.822438843904616 6.270526204694114 6.219913057852715 -2 -2 2
41 1 1 0.5897 6.515130176266665 6.1609375784172995 6.97524557461231 -2 -2 2
719 1 1 0.5897 7.283305158154089 3.321435194812908 7.551453542089159 -1 2 1
652 1 2 -1.1794 6.3120143292721 3.25249398471977 10.887256946771643 -4 0 0
711 1 1 0.5897 6.8957495231897274 4.885022547275856 8.491376994960403 -4 -6 -2
710 1 1 0.5897 6.118918241124389 3.8518282199077243 9.279247377791648 -4 -6 -2
718 1 2 -1.1794 8.172681616230765 3.2081616465249487 7.216361361481265 -1 2 1
720 1 1 0.5897 8.737207044089978 3.390367895917534 7.967567446992604 -1 2 1
709 1 2 -1.1794 6.08117241807629 4.382526761485575 8.483541448303578 -4 -6 -2
654 1 1 0.5897 5.909375665345665 2.390532986057009 10.782271993328113 -4 0 0
40 1 2 -1.1794 7.339013432452495 6.647668869131829 6.95488092273498 -2 -2 2
809 1 1 0.5897 8.974961062092751 5.334543405876974 10.78871118660298 1 1 -1
178 1 2 -1.1794 5.9632122531462395 6.8179363768846954 10.453779155479168 -4 3 -3
180 1 1 0.5897 6.477500331071931 6.26903204468939 11.045695906304076 -4 3 -3
368 1 1 0.5897 5.813866478855707 4.1085080213285465 12.40914898967192 5 1 -4
453 1 1 0.5897 8.03907977204932 4.813393981838413 13.464533342985003 -1 2 2
452 1 1 0.5897 7.88751119280514 5.425664173328752 14.840669701373304 -1 2 2
367 1 2 -1.1794 5.792402256803313 4.74274898955333 13.125690952974749 5 1 -4
688 1 2 -1.1794 5.118040722729158 4.209951516371829 15.633157059557252 5 0 2
816 1 1 0.5897 6.555734121035491 1.9266989217586692 14.208921997615622 -2 10 -3
690 1 1 0.5897 5.424747487648818 4.604446434652919 14.816805987428516 5 0 2
451 1 2 -1.1794 8.341324704521021 4.727557285824806 14.368629943762096 -1 2 2
815 1 1 0.5897 7.60512318802187 2.9845434620016658 14.476180958186763 -2 10 -3
814 1 2 -1.1794 7.442111442487846 2.0443011415646923 14.550424917982635 -2 10 -3
810 1 1 0.5897 8.65901787724367 6.548609062928506 11.635933816798403 1 1 -1
133 1 2 -1.1794 8.82618951349181 2.1710847136633387 12.008291188268903 -4 -4 0
808 1 2 -1.1794 8.669104549902293 5.591788815695103 11.65841578035486 1 1 -1
369 1 1 0.5897 5.056063958915341 5.317114219244612 12.915808507531205 5 1 -5
526 1 2 -1.1794 7.076938400979163 6.754773400458722 15.710533849024477 -2 -4 1
134 1 1 0.5897 8.621287674364357 2.0834292095497133 12.939131848005877 -4 -4 0
689 1 1 0.5897 5.918876237021923 3.979135044085224 16.10381193697403 5 0 2
653 1 1 0.5897 7.2088750229740794 3.066220315906917 11.164833394335723 -4 0 0
544 1 2 -1.1794 6.245369371479094 3.5929687147170677 20.063388812376708 -4 2 3
629 1 1 0.5897 5.707208445639124 5.3712494204485735 19.370924711656855 -4 -1 -2
628 1 2 -1.1794 5.11077284089245 6.0924368086270295 19.170210090314356 -4 -1 -2
596 1 1 0.5897 8.6351291739979 6.386723902515001 21.068016432305825 2 -6 -1
614 1 1 0.5897 5.922331594471433 1.9722460083175388 17.404468575736495 -6 -2 2
546 1 1 0.5897 6.95520225181964 3.013942494786149 20.340881223908788 -4 2 3
860 1 1 0.5897 8.038541967110948 2.770717275544867 17.26172995522768 -1 2 2
859 1 2 -1.1794 7.288433584219438 3.3504160475470814 17.393586658328836 -1 2 2
595 1 2 -1.1794 7.746538398269419 6.734197031556724 20.992066388756392 1 -6 -1
861 1 1 0.5897 7.387035424141979 3.6702501617813583 18.290293879132697 -1 2 2
545 1 1 0.5897 5.507162808555855 3.006170010858071 19.899586470947874 -4 2 3
306 1 1 0.5897 6.78201248738882 8.550601778651536 4.7479446133017325 4 -1 -6
591 1 1 0.5897 5.64769596535501 8.344558455394658 2.361074966190951 2 8 2
304 1 2 -1.1794 6.612066740448835 8.912423650632135 5.617608708496227 4 -1 -6
56 1 1 0.5897 7.650253478204244 10.832764442085043 3.0230599643376386 -3 -4 0
55 1 2 -1.1794 7.033174325899991 11.120798912687375 2.3504289403334258 -3 -4 0
57 1 1 0.5897 6.72302543614954 10.310374184173545 1.946443140344365 -3 -4 0
501 1 1 0.5897 7.895320907158825 7.854407672807016 2.805237288721746 -4 -2 -6
590 1 1 0.5897 6.023038758935438 6.9222265678597825 2.7185656649478034 2 8 2
589 1 2 -1.1794 6.248258707069522 7.833864021262789 2.903901684491125 2 8 2
506 1 1 0.5897 9.026854683576033 11.479239088200607 4.737849941375279 5 2 3
551 1 1 0.5897 8.668498006375156 11.088353098682997 1.0551959636415962 -2 13 -5
505 1 2 -1.1794 9.03041362849508 10.645286373981566 4.268159203837531 5 2 3
499 1 2 -1.1794 8.851193571310485 7.899307582505798 2.7849714552986438 -4 -2 -6
500 1 1 0.5897 9.102460309788281 7.335290478719437 2.05363662606379 -4 -2 -6
827 1 1 0.5897 6.32986142759943 10.836432610391666 5.749770059807463 -4 -2 2
215 1 1 0.5897 4.91075134142051 9.538630761064526 6.675160344271008 6 -3 -1
454 1 2 -1.1794 8.843361615322301 10.593471756881847 8.808091552697611 6 -4 0
826 1 2 -1.1794 6.199808731084374 11.696757649945035 6.148572959509774 -4 -2 2
842 1 1 0.5897 8.772712094509016 7.2066271807592015 7.899439525256373 -7 3 -1
411 1 1 0.5897 6.656348792924609 8.6034631496147 9.833798155332776 9 1 -6
410 1 1 0.5897 7.20777492919128 9.851699972996734 9.178498189587646 9 1 -6
409 1 2 -1.1794 6.387576579116721 9.433467087122825 9.440152894012243 9 1 -6
216 1 1 0.5897 5.111415895641687 9.368994989502413 8.165985668108931 6 -3 -1
456 1 1 0.5897 8.932863321590942 11.524444981280482 8.604663900111426 6 -4 0
843 1 1 0.5897 8.932312967254685 7.76332719303259 9.298077550497327 -7 3 -1
305 1 1 0.5897 6.908614327909622 8.232516903513472 6.222522506018396 4 -1 -6
179 1 1 0.5897 5.542551359836347 7.459438049725586 11.026171854441971 -4 3 -3
363 1 1 0.5897 5.3033721872591055 11.481020504774454 13.947783212453992 3 -4 -1
465 1 1 0.5897 7.748575063804015 9.731595222131944 15.052930878143398 6 6 0
316 1 2 -1.1794 7.4227451907817 10.823365680926582 12.045505922430658 -9 -3 -4
247 1 2 -1.1794 8.297542706091239 10.842295340274577 16.088708193828857 2 1 -3
464 1 1 0.5897 7.638704618296696 8.291320631826931 14.599957458396787 6 6 0
712 1 2 -1.1794 8.38146629005777 8.2867027631786 11.326590602454147 -4 -1 1
463 1 2 -1.1794 7.392540363117797 9.182985457628046 14.35405071173743 6 6 0
318 1 1 0.5897 7.0765333346953 10.427317364789376 12.84512246935971 -9 -3 -4
317 1 1 0.5897 6.838730263497563 10.515061262759918 11.352686218568579 -9 -3 -5
528 1 1 0.5897 6.166944075805208 7.049759993213652 15.742074534550017 -2 -4 1
714 1 1 0.5897 7.97175521347066 8.880568799284063 11.955528865507036 -4 -1 1
95 1 1 0.5897 7.589011748743575 9.76883929092671 19.33091400095831 -5 -3 -6
94 1 2 -1.1794 8.161939314832019 9.965549168373272 18.589827787602374 -6 -3 -6
831 1 1 0.5897 5.213923657197492 7.924531734077603 18.652087145902044 3 5 3
829 1 2 -1.1794 5.12008307400515 8.87548986376294 18.706956341383908 3 5 3
780 1 1 0.5897 7.169784962992823 8.350630078588887 20.85565680629552 -1 0 -3
778 1 2 -1.1794 6.8379290145047165 9.248243044096043 20.872885625252096 -1 0 -3
779 1 1 0.5897 6.093989016987309 9.240653772733655 20.27072327887072 -1 0 -3
819 1 1 0.5897 7.380294516523794 11.69797501025268 18.5425114249539 4 0 1
96 1 1 0.5897 9.019812214845578 9.63424198244756 18.85515168692303 -6 -3 -6
249 1 1 0.5897 8.148093768245047 10.626989316140959 17.009258971264302 2 1 -3
260 1 1 0.5897 8.803123179899787 7.717621974036709 18.13042632386047 1 -1 6
845 1 1 0.5897 5.413852397977387 9.572963546339327 16.632468092520064 1 -2 6
259 1 2 -1.1794 8.257233973449456 6.932451424106174 18.170574724084517 1 -1 6
527 1 1 0.5897 7.397361726393112 6.868956593170482 16.60518109749038 -2 -4 1
261 1 1 0.5897 7.881106466465134 6.946423926549691 19.050594815433186 1 -1 6
623 1 1 0.5897 6.669059288818781 16.506729659506043 5.508373520192523 5 -3 2
650 1 1 0.5897 7.327154939975326 15.430254458639421 2.539955997688252 4 -1 -1
670 1 2 -1.1794 5.39287123538221 15.32070260276447 5.18660165489016 5 2 -1
357 1 1 0.5897 5.434210801932102 12.394019216907804 2.448164603760361 4 -5 5
128 1 1 0.5897 7.6566474078206905 13.909144319369636 4.559365630378357 -1 -1 -4
649 1 2 -1.1794 7.448382098650524 14.480910792049887 2.5277424069092285 4 -1 -1
651 1 1 0.5897 6.59622710919937 14.126885273888474 2.781915319343112 4 -1 -1
35 1 1 0.5897 4.983220435124318 13.95019642690756 1.071314183767664 -2 0 -1
127 1 2 -1.1794 8.183122930187594 13.230076301480818 4.981030137656584 -1 -1 -4
355 1 2 -1.1794 5.062518178715316 13.24974126579049 2.6620131713631503 4 -5 5
129 1 1 0.5897 8.543908007459425 13.654775174641493 5.759225264005621 -1 -1 -4
828 1 1 0.5897 6.913716646143494 12.232121919073428 5.802364077701208 -4 -2 2
32 1 1 0.5897 6.996466691917465 15.289099975137562 10.154646587248477 3 6 5
33 1 1 0.5897 6.043478711530448 16.459628872498335 10.039445876080064 3 6 5
31 1 2 -1.1794 6.92411500585372 16.226646702500446 10.333222067747124 3 6 5
229 1 2 -1.1794 6.63103087553449 13.435835907638907 9.616296470636934 3 3 3
757 1 2 -1.1794 8.80250774195449 16.71543449305853 7.981805999008436 2 2 6
682 1 2 -1.1794 8.675966947980548 13.645599429264589 7.668593456952064 6 -4 -7
231 1 1 0.5897 5.856215922350989 13.206534683150192 9.103269553805069 3 3 3
683 1 1 0.5897 7.794560583682041 13.588098456233284 8.037303282515248 6 -4 -7
230 1 1 0.5897 6.336677024721189 13.396377323182792 10.52619553165806 3 3 3
416 1 1 0.5897 4.966581797400302 11.975721827148618 7.529323802707528 4 -4 -1
759 1 1 0.5897 8.13451544001995 16.74801750969791 7.297092044593519 2 2 6
758 1 1 0.5897 8.308850060772604 16.756368970472053 8.800787440076098 2 2 6
671 1 1 0.5897 4.917270470801008 15.564084352506075 5.980749747884764 5 2 -1
791 1 1 0.5897 8.528619660674956 12.261296478821926 12.135331632862133 4 6 -4
400 1 2 -1.1794 6.410130066279433 16.030142626300453 14.994007653951932 -2 -2 2
754 1 2 -1.1794 7.872585374685809 15.59143483770599 12.816137859167416 -1 -1 -8
694 1 2 -1.1794 6.443474694049944 12.997174486931232 14.832346262872045 0 -6 -1
401 1 1 0.5897 6.2075814454884775 15.097917198398648 14.916310989580357 -2 -2 2
756 1 1 0.5897 7.348176305790893 15.948232423025226 12.09934396696097 -1 -1 -8
696 1 1 0.5897 5.813422300578936 13.131250384886426 15.54028043713712 0 -6 -1
695 1 1 0.5897 7.138629815556347 12.470291996604017 15.2263724355937 0 -6 -1
755 1 1 0.5897 7.311781649222801 15.673031203088552 13.587474181393306 -1 -1 -8
297 1 1 0.5897 6.084077452249352 13.261866365538127 12.779796293138666 2 5 -3
792 1 1 0.5897 8.493351884533496 13.676053135106919 12.672740821454388 4 6 -4
295 1 2 -1.1794 5.4757042612215185 13.192785251133664 12.044116172061347 2 5 -3
402 1 1 0.5897 5.970558824665738 16.434364491173994 14.246008411319021 -2 -2 2
790 1 2 -1.1794 9.094893268612186 12.99757569905409 12.366266120981916 4 6 -4
91 1 2 -1.1794 8.715645271717213 13.512750109523717 20.545274631435902 7 -1 0
443 1 1 0.5897 8.284547621571514 16.374821287960685 19.864256981024823 0 5 0
621 1 1 0.5897 6.084183594507337 15.214674626735121 19.588775948290795 -1 2 1
770 1 1 0.5897 8.331296609282546 14.845062570559467 17.79399386976641 3 -6 -1
620 1 1 0.5897 6.229237801597089 16.398567205137063 18.656617246047077 -1 2 1
769 1 2 -1.1794 8.37354178597889 14.294790396066121 17.011991930991414 3 -6 -1
619 1 2 -1.1794 6.7211532201149256 15.672879984195644 19.040671291870268 -1 2 1
93 1 1 0.5897 7.905097866645615 13.369164483077252 20.056912793099784 7 -1 0
817 1 2 -1.1794 6.694510683169808 12.345040393269672 18.70725531242431 4 1 1
566 1 1 0.5897 7.555313177821007 16.681344318806154 16.593075937517924 2 6 -8
429 1 1 0.5897 5.541294882158832 12.9559292760987 17.515184416743544 0 4 -3
771 1 1 0.5897 8.837284184132185 13.507594366243534 17.297250763851366 3 -6 -1
818 1 1 0.5897 6.0105271056862195 11.858108334838683 19.16679724928958 4 1 1
34 1 2 -1.1794 4.961895023750869 14.295398275489838 20.7033495401856 -2 0 -2