LAMMPS data file via write_data, version 30 Jul 2021, timestep = 1000000

1008 atoms
2 atom types
672 bonds
1 bond types
336 angles
1 angle types

-3.178111153579769 14.788110153130317 xlo xhi
-0.10673867346040922 22.686737673459774 ylo yhi
-0.07422987791900404 19.304227877919157 zlo zhi
-0.1198007164895002 -6.363398927478454 0.16314320589363515 xy xz yz

Masses

1 1.008
2 15.999

Pair Coeffs # lj/cut/tip4p/long/omp

1 0 0
2 0.21084 3.1668

Bond Coeffs # harmonic/omp

1 450 0.9572

Angle Coeffs # harmonic/omp

1 55 104.52

Atoms # full

21 7 1 0.5897 1.0522478024357156 2.049420753548189 1.1811627653541796 0 0 0
31 11 2 -1.1794 0.9314001003746064 0.962031314439991 2.5855008885634962 0 0 0
32 11 1 0.5897 0.6858862064029285 1.3499239582258962 3.425469444121886 0 0 0
55 19 2 -1.1794 -0.7516872007340374 3.995991152275021 3.460232324941401 0 0 0
56 19 1 0.5897 -1.2633901030024033 3.546239653506254 2.7879087971328516 0 0 0
57 19 1 0.5897 0.08921490374842289 4.177454085672851 3.0404471934054262 0 0 0
86 29 1 0.5897 -2.3014363425274262 1.427825338006792 3.848099208560723 1 0 0
121 41 2 -1.1794 -2.2167399345768763 2.2275827746051253 2.1212839168927897 1 0 0
122 41 1 0.5897 -2.3041851490597596 1.7872564957296064 1.275900393162893 1 0 0
46 16 2 -1.1794 1.7538674610264255 4.782964678933113 2.3786455555730353 0 0 0
123 41 1 0.5897 -2.867591038603859 2.9289829548246025 2.0951560073870588 1 0 0
53 18 1 0.5897 4.551191106836397 2.8741038752910244 2.9133303028264375 0 0 0
158 53 1 0.5897 -3.9199024483548874 4.5300730782942535 4.38162817099722 1 0 0
101 34 1 0.5897 -2.535051060298479 4.290883002426773 -0.06946743604802218 1 0 0
52 18 2 -1.1794 3.728784683778148 3.085042141409563 3.3554564974347056 0 0 0
47 16 1 0.5897 1.8006329510539736 5.227435395694303 1.5322595551034552 0 0 0
48 16 1 0.5897 1.8782039597638693 5.479929779165053 3.0228830049795383 0 0 0
33 11 1 0.5897 0.2982228766156281 0.2565813531274263 2.452746902927493 0 0 0
527 176 1 0.5897 4.062334303172345 1.66147330705069 0.36096699551354144 0 0 1
114 38 1 0.5897 -3.300604913704632 5.468810155946696 1.9457920789984766 1 0 0
602 201 1 0.5897 -0.39196754432778436 5.338851239446896 0.34909029165206723 1 0 1
54 18 1 0.5897 3.2547601184341097 3.6344073420150256 2.731305339840093 0 0 0
70 24 2 -1.1794 3.5557580062903655 0.35258833495384023 1.7087990279364556 0 0 0
71 24 1 0.5897 2.785299657103229 0.6431565917776161 2.1969649913648386 0 0 0
78 26 1 0.5897 -0.0794327695987933 2.7042624851621073 4.630329770927699 0 0 0
528 176 1 0.5897 2.8708927906086332 2.562260956998966 0.11409785659310057 0 0 1
19 7 2 -1.1794 1.087265335543365 2.502375292914051 0.33870415388067904 0 0 0
6 2 1 0.5897 3.284973325209047 1.7136058739419668 4.602388432471757 0 0 0
18 6 1 0.5897 4.418647299761949 4.224913550715443 0.09590345143982723 0 0 0
16 6 2 -1.1794 4.976830965198166 4.94083922411492 0.39937607239085443 0 0 0
72 24 1 0.5897 4.111303118351375 -0.0677223044078582 2.3651562977648437 0 0 0
45 15 1 0.5897 0.35461722910826676 4.918270709267487 7.344534685436181 0 0 0
124 42 2 -1.1794 -4.944188318211562 2.5236705634840413 7.708308990830173 1 0 0
85 29 2 -1.1794 -2.456816971368688 1.3550738290691668 4.789770099570484 1 0 0
34 12 2 -1.1794 0.23213148425897323 1.1575496047588594 7.396908406604873 0 0 0
35 12 1 0.5897 0.4119389256724615 1.717879665480177 8.151841714804211 0 0 0
36 12 1 0.5897 -0.6398169764560278 0.800412426116905 7.565449121219677 0 0 0
159 53 1 0.5897 -2.835757938667728 4.550602135690762 5.437920924968073 1 0 0
522 174 1 0.5897 2.188401651899884 5.371654813652222 8.909077973502333 0 0 0
77 26 1 0.5897 0.5284688730388725 1.9515037800176018 5.794501567260054 0 0 0
58 20 2 -1.1794 1.912770535522137 4.119879872159894 6.564524976688843 0 0 0
59 20 1 0.5897 1.6031973453449346 3.63485355677949 5.7996189080287674 0 0 0
43 15 2 -1.1794 -0.4772848245975876 5.382701525774252 7.436977564869075 0 0 0
60 20 1 0.5897 2.4804061349534345 3.5028364171212 7.026221561331003 0 0 0
126 42 1 0.5897 -4.1509659161381975 2.980622697958345 7.4285977393671025 1 0 0
76 26 2 -1.1794 0.7156225089176438 2.2465638041450138 4.9034036493830016 0 0 0
134 45 1 0.5897 -1.9243686430273899 2.605448906313452 6.448723095684074 1 0 0
67 23 2 -1.1794 -2.221998816991392 0.35278364892229397 8.205540068445437 0 0 0
98 33 1 0.5897 -4.23463732498077 5.296922742730579 9.201987643747541 1 0 0
135 45 1 0.5897 -1.6185703860439382 3.8700416904601527 7.222809219826436 1 0 0
69 23 1 0.5897 -2.3045394854590078 1.0610173071559073 8.844195484531669 0 0 0
4 2 2 -1.1794 3.6866957752393406 1.0393767394524198 5.150255325562087 0 0 0
133 45 2 -1.1794 -2.3446915550027754 3.324800021386143 6.920098954811057 1 0 0
68 23 1 0.5897 -3.0820553383992535 0.30459856800813334 7.78825256737887 0 0 0
157 53 2 -1.1794 -3.530726303436525 5.086690115217916 5.056096705903119 1 0 0
669 223 1 0.5897 -4.998283204824647 1.69058853571074 9.215955949321602 1 0 0
5 2 1 0.5897 3.2213128973815177 0.23499567736857196 4.920926555934841 0 0 0
90 30 1 0.5897 -5.132922812657999 1.9111642824030302 5.902127345801301 1 0 0
87 29 1 0.5897 -3.376924917012447 1.594691280307471 4.900530082068423 1 0 0
520 174 2 -1.1794 2.5789956794520084 4.753595846852574 9.526774524215245 0 0 0
345 115 1 0.5897 -1.1318306089544183 0.013942761551689664 5.153834333083823 0 1 0
402 134 1 0.5897 1.7537209209176687 0.1543780184706019 7.733692640759747 0 1 0
11 4 1 0.5897 2.1920702277153152 5.622280515296258 5.17312090244398 0 0 0
627 209 1 0.5897 -6.642641231045841 2.6971515456791626 12.398835978932969 1 0 0
626 209 1 0.5897 -5.403742713586109 2.006194059749366 12.927441522563777 1 0 0
668 223 1 0.5897 -5.306107529748857 1.8433652701635352 10.690324521016725 1 0 0
561 187 1 0.5897 -3.47734191351078 3.6407421487583322 14.147590037064342 0 0 0
536 179 1 0.5897 -2.107121563376192 1.4588580390312074 13.093947410481777 0 0 0
576 192 1 0.5897 0.07542198950615608 0.5624860748308225 11.839024842928271 0 0 0
24 8 1 0.5897 0.5446868463509893 3.8051896089304558 9.954186007333163 0 0 0
22 8 2 -1.1794 0.26100294421062875 2.9400591084882737 9.658699640631943 0 0 0
535 179 2 -1.1794 -1.6195303118217907 1.2046793731477792 12.310405307847104 0 0 0
23 8 1 0.5897 0.49960707908504665 2.3516223420039726 10.37487287896553 0 0 0
537 179 1 0.5897 -1.868363250774654 1.8533494082000885 11.652071343122007 0 0 0
557 186 1 0.5897 0.24691308485706998 2.5870798951954317 13.268180557771565 0 0 0
593 198 1 0.5897 -7.421077669373148 0.7996017649917028 13.973602131530045 1 0 0
552 184 1 0.5897 -2.3117188626112952 4.788681030607652 12.780545475847426 0 0 0
556 186 2 -1.1794 0.5257358744129439 3.2529090083078334 12.639604307727335 0 0 0
574 192 2 -1.1794 0.7857444260637649 0.5050974912741932 11.199927218175404 0 0 0
558 186 1 0.5897 -0.24840296331940515 3.801135636427053 12.511594397412377 0 0 0
559 187 2 -1.1794 -3.770448417846913 4.300306040740918 13.518955935017258 0 0 0
560 187 1 0.5897 -4.348836557565024 3.8238361009852446 12.923470082461547 0 0 0
525 175 1 0.5897 -1.5971922350411436 2.871258058616617 9.760012216608471 0 0 0
625 209 2 -1.1794 -5.70196632822746 2.6080932895205984 12.245623695495594 1 0 0
523 175 2 -1.1794 -2.4013002969957173 2.512339144750336 10.13532465274691 0 0 0
550 184 2 -1.1794 -1.4540911565608425 5.033346629012359 12.432850085975067 0 0 0
99 33 1 0.5897 -3.8721000931744722 5.450620644376824 10.663688220250895 1 0 0
589 197 2 -1.1794 -5.367728762320189 0.941651893529184 14.446295226666713 1 0 0
524 175 1 0.5897 -3.0471971520334207 3.2112055568250018 10.032050905017044 0 0 0
667 223 2 -1.1794 -5.238452894279435 1.1889867989507557 9.994979488248184 1 0 0
663 221 1 0.5897 -6.833366430208057 5.522287374509984 13.805639871348934 1 0 0
606 202 1 0.5897 -5.971184990670369 5.094428632315245 9.998594449744404 1 0 0
986 329 1 0.5897 -4.046592245785941 0.022797781689603475 10.813087652795284 1 1 0
97 33 2 -1.1794 -4.111383219242809 4.795641452217412 10.007976788126754 1 0 0
587 196 1 0.5897 -1.3043566213205722 5.658917354265633 10.831046494833561 0 0 0
508 170 2 -1.1794 1.0127230486106376 0.7711129741352418 14.397602875011666 0 0 0
572 191 1 0.5897 -6.030604439526085 0.07116664805042147 17.57519724975601 0 0 0
164 55 1 0.5897 -8.52278635334733 1.8485881718163852 18.497330818245942 1 0 -1
571 191 2 -1.1794 -5.369196065739651 0.6197851398232446 17.996789630503606 0 0 0
628 210 2 -1.1794 -8.474053608263077 2.483666639625916 16.802384349484036 1 0 0
639 213 1 0.5897 -6.076919044451236 3.852516085012958 15.478337734122144 1 0 0
905 302 1 0.5897 -1.5582716808130863 0.24607018569354439 17.46693723224751 0 1 0
165 55 1 0.5897 -9.024936328424985 0.42399369449883706 18.598597630429445 1 0 -1
601 201 2 -1.1794 -6.9757032808349475 4.813666540424282 19.099938262082915 1 0 0
538 180 2 -1.1794 -2.924103255625565 1.119298865632843 16.986561494225448 0 0 0
20 7 1 0.5897 -5.400949750028755 1.9737665934063857 19.067422642946234 0 0 -1
540 180 1 0.5897 -3.838624118281083 0.88246864379544 17.140657526293978 0 0 0
539 180 1 0.5897 -2.683056866946248 1.651634272360905 17.744623555736467 0 0 0
638 213 1 0.5897 -6.466656687757898 2.8721734740436617 16.564046748421248 1 0 0
549 183 1 0.5897 -4.029138289568075 4.517775552655584 16.782276480590298 0 0 0
562 188 2 -1.1794 -1.017258614442361 4.3135005991480595 16.208977311141638 0 0 0
581 194 1 0.5897 -2.592041826561556 1.949126142075218 15.377922470123373 0 0 0
564 188 1 0.5897 -1.915732782230796 4.479727482563294 16.494288136105816 0 0 0
547 183 2 -1.1794 -3.5011117096743725 5.2177018089383855 17.16633514346008 0 0 0
580 194 2 -1.1794 -2.135682462158144 2.4436812129472334 14.697212892180776 0 0 0
637 213 2 -1.1794 -5.72290609550847 3.157786790600597 16.033451487059565 1 0 0
563 188 1 0.5897 -0.7165990377883773 5.153144228647195 15.861397460911839 0 0 0
582 194 1 0.5897 -1.628170711004766 3.0989334660912973 15.176021554604436 0 0 0
590 197 1 0.5897 -5.237564486714954 1.6619062785727028 15.063167593874411 1 0 0
614 205 1 0.5897 -7.051547733748805 5.656717115731825 17.52473715110994 1 0 0
163 55 2 -1.1794 -8.531616120207254 1.088684855352302 19.07923710996122 1 0 -1
591 197 1 0.5897 -4.612980337131164 0.3690380576325711 14.583024944033763 1 0 0
603 201 1 0.5897 -6.304217648240817 4.144406917328445 19.232012609801913 1 0 0
526 176 2 -1.1794 -2.5749558232239673 2.6003493443021104 19.25015982066143 0 0 0
661 221 2 -1.1794 -7.166521536338898 4.962016126205889 14.5064963269127 1 0 0
289 97 2 -1.1794 -2.9847054576056085 9.82608811661589 2.660637322272453 1 0 0
147 49 1 0.5897 -1.0666855243574904 7.499898497871375 0.9549604295947531 1 0 0
255 85 1 0.5897 -2.470935983127198 8.828472142657356 4.139068624232882 1 0 0
146 49 1 0.5897 -1.3603221301507173 6.4263486464497905 1.98111480197137 1 0 0
332 111 1 0.5897 -2.481801587549472 9.169802168211783 1.0996087904374785 1 0 0
145 49 2 -1.1794 -0.6434209640530604 6.830089130468744 1.491920543903753 1 0 0
112 38 2 -1.1794 -3.190052153707078 6.202808431715053 2.5501800082636965 1 0 0
7 3 2 -1.1794 -0.6019551868232638 6.522495776889131 4.752799486901806 0 0 0
199 67 2 -1.1794 1.1315697934489926 8.570240458240455 2.4695139874325003 0 0 0
200 67 1 0.5897 0.5251100433316163 7.915197970881236 2.12409627705501 0 0 0
188 63 1 0.5897 0.9036313102665288 9.791911817775032 1.1324266069163464 0 0 0
29 10 1 0.5897 4.70362190131371 6.81805995652892 2.69918020010294 0 0 0
113 38 1 0.5897 -3.1841987818399193 5.799952503734648 3.4183901928423817 1 0 0
291 97 1 0.5897 -3.8237910028209754 10.234061386070476 2.8741455264090026 1 0 0
245 82 1 0.5897 1.1089476712135777 9.551810677972645 4.014703912231925 0 0 0
189 63 1 0.5897 1.8936722909288033 10.37917662385878 0.1491212818860626 0 0 0
221 74 1 0.5897 4.5227324572735546 10.812226195324614 3.091366030368573 0 0 0
290 97 1 0.5897 -2.3312816929981013 10.486682716729428 2.890552090267567 1 0 0
82 28 2 -1.1794 2.0004083077843786 6.157699131915928 0.07757862333187038 0 0 0
696 232 1 0.5897 4.481922700774022 11.004431720177632 0.2939242339993433 0 0 1
694 232 2 -1.1794 3.7297445523297217 10.412534542272608 0.2849063172221225 0 0 1
187 63 2 -1.1794 0.9812261537398745 10.101426454062732 0.23002996365727274 0 0 0
240 80 1 0.5897 3.269159748230023 7.322282361356585 0.9693417600156173 0 0 0
201 67 1 0.5897 1.9839130558335434 8.319743924668987 2.113007066689041 0 0 0
220 74 2 -1.1794 3.6971999612900275 11.057626149229614 3.5092390540183565 0 0 0
239 80 1 0.5897 3.7280924066188676 8.762297859729319 1.0566950874674257 0 0 0
238 80 2 -1.1794 3.6661798776750523 7.955255168739493 1.5675907923666934 0 0 0
174 58 1 0.5897 3.464327697169839 9.180923516503158 4.084167678543345 0 0 0
331 111 2 -1.1794 -2.018076901000013 8.787669740809223 0.354448418717699 1 0 0
224 75 1 0.5897 -0.4756786751675821 11.036338724017945 3.899158463319054 0 0 0
9 3 1 0.5897 -0.7951513689816982 5.7178096954143465 4.271737319942769 0 0 0
10 4 2 -1.1794 2.044578770832149 6.399167453042901 4.633827516710175 0 0 0
12 4 1 0.5897 1.1130372171482366 6.591930372895133 4.740375656955539 0 0 0
173 58 1 0.5897 3.2053397375432464 7.783264977618709 4.6050314194418815 0 0 0
8 3 1 0.5897 -0.6526265151021331 6.269152205482472 5.6744116941925995 0 0 0
254 85 1 0.5897 -1.8877471023936667 7.71922916345708 4.988249156335067 1 0 0
109 37 2 -1.1794 -4.550859329551979 6.207878251207239 7.702322914137486 1 0 0
294 98 1 0.5897 -4.57852716285894 10.246577355160595 8.188611564935682 1 0 0
244 82 2 -1.1794 0.8836319133888271 10.015892675686155 4.821022737635274 0 0 0
191 64 1 0.5897 0.3798167949849862 9.477046325616254 8.512655288424336 0 0 0
246 82 1 0.5897 0.5711191985409099 9.331348302812499 5.412557660264222 0 0 0
292 98 2 -1.1794 -4.6071014644974815 10.696153832462427 7.34410968394025 1 0 0
835 279 2 -1.1794 -5.15774378594859 9.099824419990107 9.579121188677838 1 0 0
301 101 2 -1.1794 -2.1098665447549396 10.673841856789885 6.441524752554042 1 0 0
837 279 1 0.5897 -5.787027962589045 8.586705406325818 9.07232162125063 1 0 0
66 22 1 0.5897 2.7853759723635356 6.731466513153623 7.5290171176052345 0 0 0
237 79 1 0.5897 -2.6405669847548956 8.539506506524647 8.892370848511046 0 0 0
202 68 2 -1.1794 -0.041082348467422314 8.558163706900062 7.005344696030711 0 0 0
203 68 1 0.5897 -0.8686959527264246 8.283028037550544 7.399827573198393 0 0 0
204 68 1 0.5897 0.5904055560343653 7.895737215769712 7.2857132827885405 0 0 0
64 22 2 -1.1794 2.00674493030464 7.0472968770844195 7.987565657607439 0 0 0
235 79 2 -1.1794 -2.4185532178921236 7.70962967810752 8.47007487219326 0 0 0
236 79 1 0.5897 -3.2635476362992075 7.2934908514939245 8.299731153354138 0 0 0
111 37 1 0.5897 -5.4522848925330365 6.516981969381308 7.6121357129597005 1 0 0
302 101 1 0.5897 -1.832553121485699 9.93825411492248 5.8953127909904985 1 0 0
172 58 2 -1.1794 3.7098131711775206 8.576652532325102 4.784666948869912 0 0 0
293 98 1 0.5897 -3.703972889619465 10.670562496627852 7.027862282689687 1 0 0
190 64 2 -1.1794 0.3497741974588138 9.974896101478764 9.329650647533054 0 0 0
110 37 1 0.5897 -4.297192936126582 5.945833241593899 6.817328066438038 1 0 0
65 22 1 0.5897 2.3275121785480186 7.755995109850508 8.545302936443589 0 0 0
303 101 1 0.5897 -1.2941979375068664 11.039485683853982 6.783744557018451 1 0 0
258 86 1 0.5897 -5.125065101563159 9.371609146662145 6.3619523394548 1 0 0
257 86 1 0.5897 -4.3140385153803775 8.662159562281806 5.298433437051387 1 0 0
253 85 2 -1.1794 -2.580870383807238 8.379314363205134 4.977108883290067 1 0 0
192 64 1 0.5897 0.9797174464239529 10.684151151020659 9.201793075503373 0 0 0
228 76 1 0.5897 2.1688761500076428 11.274307304377496 5.669195838870464 0 0 0
44 15 1 0.5897 -0.4945732357868948 5.664594643223482 8.351548655481073 0 0 0
724 242 2 -1.1794 0.5545260023948826 10.752552866008967 12.899604020607695 0 0 0
759 253 1 0.5897 -5.496603098235806 9.504847185247193 13.56208862300786 1 0 0
678 226 1 0.5897 0.6309577700280755 9.426760281315007 14.183135063024961 0 0 0
651 217 1 0.5897 -4.539915299942091 7.093309880331847 12.116393329942863 1 0 0
794 265 1 0.5897 -5.199259818573502 10.949241662035245 12.239421604790602 1 0 0
586 196 2 -1.1794 -0.9756125738896078 5.945734426467336 9.9790816888474 0 0 0
795 265 1 0.5897 -5.611389077792544 9.889745132257243 11.23970592270277 1 0 0
618 206 1 0.5897 -6.770923340377985 5.738983215118068 11.812778148381543 1 0 0
649 217 2 -1.1794 -3.8883636848107552 7.09277319448955 11.41513165239934 1 0 0
650 217 1 0.5897 -3.1398287110450616 7.562623543850922 11.7826676998937 1 0 0
617 206 1 0.5897 -7.098878627824169 7.195091336833855 12.066255498069175 1 0 0
793 265 2 -1.1794 -5.898326355600888 10.325914687186772 12.041984662206762 1 0 0
743 248 1 0.5897 0.7455835028688398 8.79254529471022 10.748821090978739 0 0 0
744 248 1 0.5897 0.056109654420421595 7.454828178259957 10.584431382726681 0 0 0
616 206 2 -1.1794 -6.502699199460782 6.495721261842928 12.333943385071146 1 0 0
693 231 1 0.5897 -2.122350002681738 9.811724625282517 10.91331070322718 0 0 0
703 235 2 -1.1794 -1.8971815672128436 8.442586680221229 12.433099620490758 0 0 0
704 235 1 0.5897 -0.9713443328690694 8.267543997303147 12.264344908892374 0 0 0
705 235 1 0.5897 -1.8994507931583087 8.979800855839636 13.225343352551638 0 0 0
692 231 1 0.5897 -1.389787450783135 10.138040501442765 9.629258497916823 0 0 0
742 248 2 -1.1794 0.6074094925795603 7.953184889317939 11.187646493114894 0 0 0
836 279 1 0.5897 -4.747991139257353 8.464743518982294 10.166401924934739 1 0 0
757 253 2 -1.1794 -5.375071445428187 9.167089533144 14.449351767219948 1 0 0
750 250 1 0.5897 -3.0358349719324025 10.486260418887726 14.148787711513997 0 0 0
725 242 1 0.5897 0.8859062814338428 11.361642606162432 13.559437741067343 0 0 0
726 242 1 0.5897 -0.12725151791800027 11.243386059182935 12.44092520583109 0 0 0
691 231 2 -1.1794 -2.266355937707398 9.989082904517089 9.983840394224039 0 0 0
551 184 1 0.5897 -1.1873060980730292 5.786306478379423 12.96020732475316 0 0 0
513 171 1 0.5897 -3.8637924213727803 6.332127630676896 14.300267290284618 0 0 0
809 270 1 0.5897 -7.414563865068251 10.990027424466138 12.752801994923962 1 0 0
762 254 1 0.5897 -7.380668922122738 8.752089196684766 14.459587124937313 1 0 0
588 196 1 0.5897 -1.6255507699353071 6.577525430787351 9.67149702503012 0 0 0
570 190 1 0.5897 -0.3766713518351503 7.011321912966021 17.499428760382386 0 0 0
83 28 1 0.5897 -4.938173993179683 6.956890269861366 19.0308740995537 0 0 -1
654 218 1 0.5897 -9.219402175928128 7.745492512029584 18.66916221484103 1 0 0
741 247 1 0.5897 -5.818380876626147 9.00327632814529 18.141614293049287 0 0 0
511 171 2 -1.1794 -3.7353898874046507 6.971367150445178 15.001074510801658 0 0 0
84 28 1 0.5897 -3.9349514487504926 5.862967932069161 18.732522428353036 0 0 -1
568 190 2 -1.1794 -1.0958971750591662 7.354591168245086 18.029748805393076 0 0 0
569 190 1 0.5897 -1.4923655640752092 6.579253612833688 18.42709016134033 0 0 0
333 111 1 0.5897 -8.305225905871964 9.668430984008555 19.104122617171278 1 0 -1
731 244 1 0.5897 -1.174047459839592 11.271276337847157 15.308481727833044 0 0 0
797 266 1 0.5897 -6.763253844159557 10.914869404439 16.977388779693918 1 0 0
740 247 1 0.5897 -6.200148031697988 7.805929986983402 17.297489013029427 0 0 0
512 171 1 0.5897 -4.354116713050818 7.67390635767764 14.80160050240248 0 0 0
695 232 1 0.5897 -2.672236269512563 10.250395008562439 18.76398602218608 0 0 0
515 172 1 0.5897 -1.8598933401828388 7.105877932885722 15.03244496416594 0 0 0
706 236 2 -1.1794 -2.973358873993427 9.355510655183013 17.231713673532838 0 0 0
707 236 1 0.5897 -3.823609711020496 8.915851974473675 17.23285344546199 0 0 0
708 236 1 0.5897 -2.3487005404498387 8.67058542784622 17.470246524481105 0 0 0
796 266 2 -1.1794 -7.476725629548444 10.422261538489881 17.383035861399463 1 0 0
749 250 1 0.5897 -2.6963661939427324 9.853471618188918 15.481371495529668 0 0 0
739 247 2 -1.1794 -5.443150559448007 8.26563004530754 17.660543665276464 0 0 0
613 205 2 -1.1794 -7.187779440074953 6.335092213189474 16.863443826045426 1 0 0
805 269 2 -1.1794 -5.2277791539010465 11.3927539778067 16.026125034306055 1 0 0
798 266 1 0.5897 -7.804981668578305 9.856160344398516 16.68449375821963 1 0 0
748 250 2 -1.1794 -2.3490010336550418 9.996473193107601 14.60099960372583 0 0 0
758 253 1 0.5897 -5.242717674246572 9.947733204872554 14.987258322434418 1 0 0
548 183 1 0.5897 -3.55836093052216 5.935303496576285 16.53553466607356 0 0 0
615 205 1 0.5897 -7.247725024022429 5.855909713688452 16.036992321163723 1 0 0
653 218 1 0.5897 -8.748532171158988 6.896858067840187 17.507176346080904 1 0 0
516 172 1 0.5897 -0.41894707218038096 7.565893121266065 14.969672787142558 0 0 0
514 172 2 -1.1794 -0.9766483032735138 6.801895867594443 14.823183938917001 0 0 0
732 244 1 0.5897 0.15981577814009018 11.357617388090949 16.01910362548933 0 0 0
281 94 1 0.5897 -2.9229241358959177 13.653485310212348 3.2662909883433584 1 0 0
282 94 1 0.5897 -2.278061239387731 14.442873615214957 2.147041646071261 1 0 0
280 94 2 -1.1794 -3.112833680915505 14.064445505259416 2.423024471162465 1 0 0
313 105 2 -1.1794 -0.7745197455261863 14.769002002076073 1.3353439642232285 1 0 0
315 105 1 0.5897 -0.3212365242862161 14.027308011282328 0.9344069789396372 1 0 0
223 75 2 -1.1794 -0.9923258030954019 11.662939668065988 3.3926278759087505 0 0 0
314 105 1 0.5897 -0.10998029347322591 15.19024622694787 1.8804046355009763 1 0 0
225 75 1 0.5897 -1.0774060760812452 12.423904350022802 3.967087348267021 0 0 0
500 167 1 0.5897 -1.7372422270678616 16.076344219327282 0.44517944976442625 1 0 0
250 84 2 -1.1794 2.5322511944337576 13.232882829184899 0.20305387484239773 0 0 0
268 90 2 -1.1794 -3.3182578497337594 12.37965840625345 0.22504599315614449 1 0 0
769 257 2 -1.1794 -0.325035400882578 12.512474215202271 0.04556279320142316 1 0 1
184 62 2 -1.1794 5.636546737899444 12.504451188141614 0.21216871545903604 0 0 0
222 74 1 0.5897 3.194299855486906 11.483731053671521 2.815257499882676 0 0 0
408 136 1 0.5897 3.7058157508350673 16.222728046223438 1.3411482116959401 0 0 0
180 60 1 0.5897 1.7385720861932192 13.742337098359739 4.210989213115777 0 0 0
406 136 2 -1.1794 3.3532399937096926 15.425351305273159 1.7362157475963231 0 0 0
407 136 1 0.5897 4.106471370489686 15.014460514734825 2.160411085003593 0 0 0
215 72 1 0.5897 1.8478269447065196 12.73240327834918 1.7673734838432038 0 0 0
367 123 2 -1.1794 0.7389802993906858 16.43664152700387 2.71360013093624 0 0 0
214 72 2 -1.1794 1.68298990983266 12.777682419775358 2.709168273613 0 0 0
216 72 1 0.5897 0.9525150923981904 12.176348597703011 2.854171560118932 0 0 0
252 84 1 0.5897 2.916706107272809 14.050819572544256 0.5183484738044569 0 0 0
368 123 1 0.5897 1.645118122713587 16.128163515322427 2.710079100296322 0 0 0
423 141 1 0.5897 -2.589818612636255 16.9539398682008 3.9711677038616235 1 0 0
269 90 1 0.5897 -3.1881282000771476 12.917454690637607 1.0060975128982956 1 0 0
325 109 2 -1.1794 -3.507169537985037 12.373064709542948 4.624092716442825 1 0 0
771 257 1 0.5897 0.23328957172953135 11.735223588541537 0.024737114703299784 1 0 1
499 167 2 -1.1794 -2.452852271267533 16.62409999312717 0.12260158192567133 1 0 0
770 257 1 0.5897 -1.171226968714251 12.191882158894431 0.35773971958384426 1 0 1
425 142 1 0.5897 -4.39189306460485 16.204176856074167 4.557153109927414 1 0 0
405 135 1 0.5897 -2.598132503355308 16.315601061890476 8.697008678622918 0 0 0
756 252 1 0.5897 -1.4827088165036058 14.24946484606561 9.210188764863346 0 0 0
178 60 2 -1.1794 1.7843499910984022 14.087990264387198 5.1024117638510464 0 0 0
176 59 1 0.5897 -1.5071965038086148 14.872263167042279 4.938484955667545 0 0 0
177 59 1 0.5897 -0.16415351232536946 14.18077832462607 4.838453283899851 0 0 0
211 71 2 -1.1794 -0.09801511607803448 12.303722195588428 7.281256407465201 0 0 0
212 71 1 0.5897 -0.08385504942778033 12.767128279340149 8.118686950995942 0 0 0
213 71 1 0.5897 -0.40581042008758006 12.955548199938 6.651575996063099 0 0 0
175 59 2 -1.1794 -1.0929859838689326 14.011242375205164 4.995869526086381 0 0 0
340 114 2 -1.1794 3.529870891801684 16.437951843832266 5.589223138971603 0 0 0
232 78 2 -1.1794 2.1236713879621867 14.476534623049275 8.28792969673948 0 0 0
690 230 1 0.5897 1.9944831498008488 12.915151627597702 9.001524743812864 0 0 0
234 78 1 0.5897 1.5152030600919346 14.95913020473568 7.728503289556377 0 0 0
370 124 2 -1.1794 0.047522264084988386 16.506585340700255 7.3390906986527025 0 0 0
267 89 1 0.5897 -3.667974651073285 12.713436921099657 8.660990498442118 1 0 0
277 93 2 -1.1794 -4.117007362017639 13.684245796702715 7.078125229448291 1 0 0
278 93 1 0.5897 -3.5858227576823807 14.354741977138525 7.50756035646576 1 0 0
403 135 2 -1.1794 -2.4556261383433813 15.453079511039313 8.307084616751293 0 0 0
421 141 2 -1.1794 -2.5646472121339503 16.45227136655987 4.78589789862691 1 0 0
226 76 2 -1.1794 2.3348873594443704 11.765412562195138 6.473832041740063 0 0 0
327 109 1 0.5897 -3.8909992385945174 13.019143621622442 5.217040423260237 1 0 0
404 135 1 0.5897 -1.6059266658314812 15.52372706466653 7.872041873352509 0 0 0
341 114 1 0.5897 3.066987576443493 15.628938202414247 5.371344753489966 0 0 0
179 60 1 0.5897 2.1008462822088463 13.353666826198895 5.628459404600496 0 0 0
227 76 1 0.5897 1.470089604272875 11.88027393801068 6.867795710918813 0 0 0
1004 335 1 0.5897 -5.061295664298731 17.012126022981803 8.757176584036328 1 0 0
279 93 1 0.5897 -5.020868043785386 13.938216543814162 7.264714068309079 1 0 0
233 78 1 0.5897 2.9164121826242093 14.386732416423255 7.758948088112371 0 0 0
688 230 2 -1.1794 2.0955429866063575 12.099351413456047 9.491853072543163 0 0 0
1003 335 2 -1.1794 -5.362398047218386 16.531936342197163 9.528492673984493 1 0 0
371 124 1 0.5897 0.5003107247001215 17.020072459244503 8.00800413212306 0 0 0
774 258 1 0.5897 -5.687897965891898 12.300116746950499 9.415780423237246 1 0 0
265 89 2 -1.1794 -3.6898933817615887 12.531687447320548 9.600470086389782 1 0 0
326 109 1 0.5897 -2.7718670611224905 12.004778401147178 5.113811309046087 1 0 0
910 304 2 -1.1794 0.4341407615756103 15.615629724270851 11.346200356037796 0 0 0
831 277 1 0.5897 -7.451479611475818 12.408397954083396 14.102125802323911 1 0 0
773 258 1 0.5897 -6.465870543876059 13.01410479625508 10.500751982746287 1 0 0
718 240 2 -1.1794 -1.3441058633200331 12.574255840036306 12.055687402368529 0 0 0
719 240 1 0.5897 -1.2261980437774613 12.847801321110236 11.146061604220835 0 0 0
720 240 1 0.5897 -0.9083431260761898 13.254421063541828 12.56920472111777 0 0 0
911 304 1 0.5897 -0.24372532362470345 15.99194575795881 11.90765425305128 0 0 0
873 291 1 0.5897 -2.7563452561013886 15.889627458188208 11.86201727541162 0 0 0
962 321 1 0.5897 -5.771198890348598 16.87067470202661 12.705980733952034 1 0 0
912 304 1 0.5897 0.9389113069316792 15.046995316113762 11.92754263942606 0 0 0
729 243 1 0.5897 -3.8083049874944845 12.454124596029738 13.716937745850888 0 0 0
871 291 2 -1.1794 -2.064184752985846 16.527073545160015 12.037367705988723 0 0 0
829 277 2 -1.1794 -6.757089873811278 12.975338045460525 14.437674680071254 1 0 0
266 89 1 0.5897 -3.123146639185253 11.768155025537222 9.710365726318456 1 0 0
728 243 1 0.5897 -2.9146935991656706 12.079650381055343 12.553594277405928 0 0 0
754 252 2 -1.1794 -0.8075572742109007 13.79754441207659 9.716220216930582 0 0 0
786 262 1 0.5897 -6.51937993505881 13.909414154575343 12.95208774483585 1 0 0
817 273 2 -1.1794 -3.9242220069976534 14.783914065716012 11.19542623095956 1 0 0
818 273 1 0.5897 -4.738222888179486 14.574803160371363 11.653640030944153 1 0 0
819 273 1 0.5897 -3.71933058283282 13.992836161173859 10.69688454126801 1 0 0
755 252 1 0.5897 -0.3406720827717744 14.497672451859962 10.172348209249073 0 0 0
727 243 2 -1.1794 -3.7352195641184474 11.841382873334906 12.985163174691325 0 0 0
784 262 2 -1.1794 -6.445016580140473 14.159734470644336 12.031245072402367 1 0 0
682 228 2 -1.1794 -0.5877601021176524 14.247406157242565 14.14138563171149 0 0 0
1005 335 1 0.5897 -4.635877091758353 15.9480146587535 9.746264709878233 1 0 0
872 291 1 0.5897 -1.9968552456679913 17.036527289341727 11.229874470930016 0 0 0
963 321 1 0.5897 -5.749786602723043 17.06242993969976 11.204497447171965 1 0 0
680 227 1 0.5897 -2.712257800057655 14.300674888448468 14.381120336435043 0 0 0
876 292 1 0.5897 -2.233791823626648 15.647368183980515 17.157382154797347 0 0 0
681 227 1 0.5897 -3.163015903340585 13.722489922940364 15.705610036370329 0 0 0
907 303 2 -1.1794 -5.360700126788659 15.32734544563456 18.05889783788443 0 0 0
737 246 1 0.5897 -0.5381048724629762 15.273992720845193 18.063569092136504 0 0 0
830 277 1 0.5897 -7.152258885481286 13.420951834389186 15.187074603435946 1 0 0
908 303 1 0.5897 -6.103951267936326 15.136548653723386 17.48681756545772 0 0 0
783 261 1 0.5897 -8.503896074240366 14.125782191673029 16.978307162953783 1 0 0
683 228 1 0.5897 -0.5251404719197543 13.605361440389439 14.848441967432574 0 0 0
715 239 2 -1.1794 -2.9471245097235963 12.578950846962684 17.038192241181513 0 0 0
716 239 1 0.5897 -3.0521631231603 12.905271087793164 17.931902359545816 0 0 0
875 292 1 0.5897 -2.6398883419383044 16.854485302882512 16.339065601834697 0 0 0
927 309 1 0.5897 -5.221940046931987 16.691558501906556 14.973664721120889 1 0 0
736 246 2 -1.1794 -0.8504524720007005 14.58596474375231 17.47596447415296 0 0 0
874 292 2 -1.1794 -2.893292081189177 16.33915426003849 17.104825726581687 0 0 0
251 84 1 0.5897 -4.56092948039235 13.671984813643665 19.027092887743073 0 0 -1
909 303 1 0.5897 -4.672877169689679 15.630010673776402 17.465992418297084 0 0 0
781 261 2 -1.1794 -7.574718618450299 13.903019579342603 16.921178882448487 1 0 0
782 261 1 0.5897 -7.387845008235445 13.441950944299034 17.738852327399535 1 0 0
738 246 1 0.5897 -0.05327541958627968 14.164867266574594 17.15421228680532 0 0 0
717 239 1 0.5897 -2.015574382616067 12.37078003119818 16.966510281948366 0 0 0
357 119 1 0.5897 -5.612362120088433 16.903948353022688 19.105221323165324 0 0 -1
730 244 2 -1.1794 -0.5936731728384483 11.886415092808017 15.756757502302928 0 0 0
185 62 1 0.5897 -0.8657193319391503 13.312859741201612 18.89746607342486 0 0 -1
806 269 1 0.5897 -5.740253027361167 11.959168432462766 15.449362494652311 1 0 0