LAMMPS data file via write_data, version 30 Jul 2021, timestep = 23750000

972 atoms
2 atom types
648 bonds
1 bond types
324 angles
1 angle types

0.13528326904573262 19.86471773095144 xlo xhi
0.04087103325061747 19.959129966746588 ylo yhi
0.14249198313373057 20.557506016865332 zlo zhi

Masses

1 1.008
2 15.999

Pair Coeffs # lj/cut/tip4p/long/omp

1 0 0
2 0.21084 3.1668

Bond Coeffs # harmonic/omp

1 450 0.9572

Angle Coeffs # harmonic/omp

1 55 104.52

Atoms # full

16 6 2 -1.1794 4.001291653275008 4.256028091904293 3.8190794473932344 0 0 0
10 4 2 -1.1794 1.2516932765076192 3.9598081261593285 4.093138740881991 0 0 0
18 6 1 0.5897 4.155934996138457 3.319218161983347 3.6968803184603742 0 0 0
12 4 1 0.5897 2.1905308469002263 4.140336030662531 4.141358494861478 0 0 0
31 11 2 -1.1794 1.2083013949330537 2.183123654218015 2.004001403498488 0 0 0
11 4 1 0.5897 1.1764328653044074 3.2483692707447034 3.457024501480997 0 0 0
33 11 1 0.5897 1.9013619787328657 2.180454014602673 1.34367981118059 0 0 0
5 2 1 0.5897 4.557733120531945 0.8913799607615749 2.9970106010904667 0 0 0
32 11 1 0.5897 0.3962597767154907 2.2311453980224893 1.499392186219214 0 0 0
4 2 2 -1.1794 4.640989459708546 1.6342212857739877 3.5951008794983847 0 0 0
23 8 1 0.5897 2.9883083340424808 0.857204939574186 4.159252476003633 0 0 0
17 6 1 0.5897 4.387246586798777 4.666019120533683 3.044903770924597 0 0 0
22 8 2 -1.1794 2.1880787675333844 0.5542124077140522 4.588351060698304 0 0 0
3 1 1 0.5897 4.150577812478489 1.9041388737106042 0.5666564573865909 0 0 0
236 79 1 0.5897 1.2012832627058698 0.20875334459725065 1.8892007851222838 0 1 0
1 1 2 -1.1794 3.260713650359262 1.960942134046757 0.21852457217079663 0 0 0
102 34 1 0.5897 0.43127288756435667 1.0823048510005433 5.1804909081383155 1 0 0
355 119 2 -1.1794 1.0597712643683876 2.097623330863298 9.138169989513825 0 0 0
330 110 1 0.5897 4.267303020775339 0.4143303073169664 9.188497728156579 0 0 0
356 119 1 0.5897 1.677480529107356 2.29312465718573 8.433501141289241 0 0 0
325 109 2 -1.1794 2.497072462692404 2.275386134202061 6.667677174512331 0 0 0
326 109 1 0.5897 2.2494914220846156 1.8313357441603724 5.85654525093844 0 0 0
327 109 1 0.5897 3.4461928345054633 2.163556309357234 6.722425561696353 0 0 0
342 114 1 0.5897 4.360732335778483 4.170611071541312 10.07485807472822 0 0 0
27 9 1 0.5897 2.569850098250115 4.311735538849299 6.7420992104213875 0 0 0
357 119 1 0.5897 0.20405530566616975 2.3327904272775655 8.779316328930173 0 0 0
335 112 1 0.5897 1.2368611438737926 3.5059089753607133 10.207076671014802 0 0 0
328 110 2 -1.1794 4.034582718467142 1.1292035722900642 9.781141551145403 0 0 0
561 187 1 0.5897 0.9088949411373062 0.13155567759555126 8.754353793980707 0 1 0
359 120 1 0.5897 4.898488895093244 1.9769113623075645 8.131650671849393 0 0 0
9 3 1 0.5897 4.94256253715425 4.41078785885364 5.291722848943584 0 0 0
334 112 2 -1.1794 1.3705480654430067 4.229633297555566 10.81927936742906 0 0 0
347 116 1 0.5897 1.1345813451974824 0.8401329917628548 12.143231639423691 0 0 0
650 217 1 0.5897 2.622342559080722 2.2949124087505313 12.960157248636287 0 0 0
651 217 1 0.5897 2.2766260324946668 2.5941345140955865 14.403488091358156 0 0 0
348 116 1 0.5897 2.105815393495411 1.139136191131868 11.02094932122336 0 0 0
329 110 1 0.5897 4.399529574802586 0.8683137080083457 10.626805594751497 0 0 0
346 116 2 -1.1794 2.069643381886608 0.89194504255622 11.94506549522041 0 0 0
649 217 2 -1.1794 2.9243600429582766 2.7850118642849293 13.725005191056312 0 0 0
350 117 1 0.5897 2.493047276787935 4.596465553444705 13.55888783534941 0 0 0
683 228 1 0.5897 4.572329457451432 2.545735773616016 14.08427933840733 0 0 0
336 112 1 0.5897 2.3214602759362926 4.324556221084816 10.874683171999068 0 0 0
340 114 2 -1.1794 4.084901654757728 3.7347197844560136 10.881279132194187 0 0 0
341 114 1 0.5897 4.080538568004208 2.8030790252846187 10.661136439344103 0 0 0
405 135 1 0.5897 0.2422810986980773 4.338401628626212 12.182465665076517 1 0 0
679 227 2 -1.1794 0.8064407977853709 1.9230251781947878 15.378969069937613 0 0 0
658 220 2 -1.1794 1.214258376432243 3.8007852149401296 17.211418886918082 0 0 0
653 218 1 0.5897 3.5913722901619116 1.0135341789328085 17.252077700648993 0 0 0
659 220 1 0.5897 0.5087030030323945 3.80894092686593 17.858309955345945 0 0 0
671 224 1 0.5897 1.6507977352186103 0.25441210658043 18.61817350139804 0 0 0
670 224 2 -1.1794 2.6042804907919166 0.25017144829660987 18.533813062380208 0 0 0
664 222 2 -1.1794 3.9234542992763375 3.7882091799940025 17.722274697989118 0 0 0
666 222 1 0.5897 4.143539665097939 2.959722019304617 17.296097909172097 0 0 0
681 227 1 0.5897 0.8604013727617084 2.579504611240095 16.07362144405046 0 0 0
652 218 2 -1.1794 4.362881960963731 1.3001948267371755 16.763252629169592 0 0 0
672 224 1 0.5897 2.903635268608804 0.9083482275112031 19.16117213266457 0 0 0
654 218 1 0.5897 4.577614012899675 0.5585668664233601 16.19728141594435 0 0 0
665 222 1 0.5897 2.9667658485465522 3.8181361875089253 17.709114987487286 0 0 0
660 220 1 0.5897 1.11198405124389 4.624391982789145 16.734290323851194 0 0 0
2 1 1 0.5897 3.197116357205844 2.848712507816259 20.281019739564773 0 0 -1
673 225 2 -1.1794 2.7625760300990323 4.8200945927700385 20.19721304334389 0 0 0
884 295 1 0.5897 0.8818786731435748 0.21192843470050104 15.492886127530374 0 1 0
141 47 1 0.5897 0.964082819621567 7.8122982284136295 2.3630723901896515 0 0 0
112 38 2 -1.1794 3.9837228619460046 8.075573802057642 3.0282273779482325 0 0 0
15 5 1 0.5897 4.052101661060677 6.64651172355372 1.8154504745324938 0 0 0
14 5 1 0.5897 4.108509628690749 5.451061571134174 0.8880132820976201 0 0 0
132 44 1 0.5897 1.2246883170720189 7.4821790853954555 5.145261855194447 0 0 0
674 225 1 0.5897 2.120570739959196 5.1804265069592335 0.3940568236894247 0 0 1
130 44 2 -1.1794 2.1507813554627435 7.259057036928227 5.050947681958662 0 0 0
139 47 2 -1.1794 0.48169802153469377 8.614918029752635 2.1641919808292793 0 0 0
140 47 1 0.5897 0.4472226174552233 9.086729921866054 2.9964269284003016 0 0 0
114 38 1 0.5897 3.248448903644215 7.814952960632121 3.583035400116092 0 0 0
19 7 2 -1.1794 1.2840632822165967 5.836039036472218 2.0063145026459375 0 0 0
113 38 1 0.5897 4.758806066409081 7.760769385818631 3.493525315463616 0 0 0
126 42 1 0.5897 4.237932373838949 9.870535182334184 3.563540291372653 0 0 0
110 37 1 0.5897 1.9514593782892133 8.967756324184915 0.8947669382891242 0 0 0
13 5 2 -1.1794 4.625469427868626 5.933831300297466 1.533059688833831 0 0 0
21 7 1 0.5897 0.4261138328102717 5.608890961117617 1.6476396698581552 0 0 0
111 37 1 0.5897 3.301969757321487 9.051328352601367 0.2155759177523628 0 0 0
20 7 1 0.5897 1.327326887349776 5.3675409518442185 2.84000735063702 0 0 0
463 155 2 -1.1794 0.6821437402685008 8.693974940822226 9.2131180438411 0 0 0
337 113 2 -1.1794 4.871752394712171 5.4195383337645575 8.700860992919702 0 0 0
468 156 1 0.5897 4.498233602646174 9.20584401790752 7.448677667037654 0 0 0
438 146 1 0.5897 4.027413585062366 8.398795771050732 9.54660753959577 0 0 0
345 115 1 0.5897 0.6427524722849864 6.82650198031199 9.031462294578368 0 0 0
435 145 1 0.5897 2.5352980236593012 8.711270601779995 6.59230927367629 0 0 0
436 146 2 -1.1794 3.6449669587122333 7.578891688400477 9.859539970454215 0 0 0
25 9 2 -1.1794 2.6904822739643284 5.249531356583764 6.8919928605273055 0 0 0
433 145 2 -1.1794 2.6992583303590876 9.113717694794223 7.445278923318228 0 0 0
464 155 1 0.5897 1.4753714040397274 8.61255543445846 8.683483744885407 0 0 0
437 146 1 0.5897 4.237144484674388 6.899320024587772 9.537171063672085 0 0 0
26 9 1 0.5897 2.0337610391225587 5.473632075198294 7.5514359096913255 0 0 0
343 115 2 -1.1794 0.8741205889862654 5.928517258549034 8.793627823136468 0 0 0
344 115 1 0.5897 1.0250461876405446 5.489737958787461 9.630939469306679 0 0 0
339 113 1 0.5897 4.374974706203971 5.369232942282596 7.884129313176346 0 0 0
131 44 1 0.5897 2.2331043048572883 6.397827870969498 5.460756022171666 0 0 0
668 223 1 0.5897 1.3221056503753599 6.071387120648604 14.872329558514586 0 0 0
757 253 2 -1.1794 2.890123152383642 9.341470273928204 14.07450855815152 0 0 0
454 152 2 -1.1794 1.739365055854043 7.52471600920705 12.203856448204746 0 0 0
455 152 1 0.5897 2.0491856530341095 7.3643974231612885 11.312412917035044 0 0 0
456 152 1 0.5897 2.156910277870353 6.842193227666004 12.72944971233307 0 0 0
349 117 2 -1.1794 2.6535118150379238 5.528447908474514 13.707554089137334 0 0 0
759 253 1 0.5897 2.7057316631162416 8.598511196937512 13.499651878129873 0 0 0
792 264 1 0.5897 4.752356212416401 9.316771845756843 14.040458788701088 0 0 0
351 117 1 0.5897 3.392401616853867 5.550775386964256 14.315725058670147 0 0 0
789 263 1 0.5897 1.7971265399982317 8.980714864836676 15.417158555511651 0 0 0
462 154 1 0.5897 4.858252827266391 7.58597183452973 11.369984920848697 0 0 0
443 148 1 0.5897 1.485503332336668 9.849225073148574 10.358991913469044 0 0 0
669 223 1 0.5897 0.6660041532902402 7.051768936775392 15.82140629837721 0 0 0
780 260 1 0.5897 2.912878721053226 7.529972979046125 17.86076585838773 0 0 0
778 260 2 -1.1794 2.28866286296328 7.21163824863925 18.512989800941643 0 0 0
787 263 2 -1.1794 1.063972429310311 8.828056936255923 16.0133860852674 0 0 0
779 260 1 0.5897 2.311348471652186 7.869530988593797 19.208045657156145 0 0 0
662 221 1 0.5897 4.102440759008857 5.107998392678314 16.353937651438066 0 0 0
760 254 2 -1.1794 4.626005726623971 8.011989194596868 17.12083172371358 0 0 0
675 225 1 0.5897 2.806832627080096 5.463168116163558 19.489457991271262 0 0 0
663 221 1 0.5897 4.492832917822417 6.55237686389473 16.121814100025667 0 0 0
858 286 1 0.5897 0.4527875863000471 7.26196984071614 18.32138559416621 1 0 0
788 263 1 0.5897 1.232331142495486 9.40985581923298 16.754718730224646 0 0 0
661 221 2 -1.1794 4.4751992767795095 5.695109265512595 15.696080761709968 0 0 0
761 254 1 0.5897 4.8916505461520225 8.906738382231728 16.907925272908766 0 0 0
109 37 2 -1.1794 2.363631782232988 9.139489848324185 20.46301996967189 0 0 -1
667 223 2 -1.1794 0.6203023556719895 6.144531749656251 15.519228267263005 0 0 0
222 74 1 0.5897 4.451688306033596 14.111020760990979 2.4754949560478505 0 0 0
220 74 2 -1.1794 4.0038718404540905 14.388202792991759 3.2748752821640483 0 0 0
129 43 1 0.5897 0.9123096986527918 13.225707043813756 2.3641159287198854 0 0 0
123 41 1 0.5897 4.459976810052014 12.361912655147897 1.1245034548907924 0 0 0
124 42 2 -1.1794 4.269825309848561 10.767491450679657 3.8965609531899505 0 0 0
127 43 2 -1.1794 0.8698453075875859 12.36055894571092 1.9564748918577044 0 0 0
783 261 1 0.5897 2.350194828767626 12.314928746354283 0.9245084656558504 0 0 1
119 40 1 0.5897 1.33091445654268 11.155576850533826 3.278506833835737 0 0 0
120 40 1 0.5897 2.4783441919621976 10.670447130387402 4.138902974485886 0 0 0
118 40 2 -1.1794 1.5226865067955282 10.67487887147667 4.083837493006685 0 0 0
240 80 1 0.5897 2.9279023667102297 14.317537233115829 4.864694721859774 0 0 0
122 41 1 0.5897 4.811669143035365 11.88558381851094 2.5179607721579798 0 0 0
125 42 1 0.5897 5.00291666292175 10.769027112283046 4.512125758617627 0 0 0
317 106 1 0.5897 0.6508352362373738 14.500536926674702 5.1421879729321285 1 0 0
781 261 2 -1.1794 2.8105681211106113 11.929183479219624 0.17909124295367287 0 0 1
782 261 1 0.5897 2.597975784556055 10.996761898124845 0.22201931421036747 0 0 1
133 45 2 -1.1794 2.6014111488972587 11.873854449355644 7.005171078931189 0 0 0
134 45 1 0.5897 1.943453792153766 12.023414706425289 7.684190938041659 0 0 0
135 45 1 0.5897 3.434630860390109 12.08048725647125 7.428722014791703 0 0 0
445 149 2 -1.1794 4.8880350507932055 12.625052686060418 8.321196343032549 0 0 0
450 150 1 0.5897 4.750500868990808 11.260947497316636 9.667761059779316 0 0 0
451 151 2 -1.1794 0.7127256112576549 12.366644141577659 9.025366915928556 0 0 0
453 151 1 0.5897 0.9144799072005279 11.785427156049613 9.758777899954637 0 0 0
573 191 1 0.5897 0.8063926796528985 14.274209203735763 9.66487472904656 0 0 0
446 149 1 0.5897 4.701471640409749 13.354054956807405 8.912973487271653 0 0 0
448 150 2 -1.1794 4.460072777709642 10.557773697949138 10.24881526493194 0 0 0
238 80 2 -1.1794 2.603719702486486 14.304706863034935 5.7653060129869695 0 0 0
239 80 1 0.5897 2.6082807573462885 13.37889804822607 6.008894753613987 0 0 0
544 182 2 -1.1794 3.856499411120347 14.495894685248281 10.010470584789617 0 0 0
434 145 1 0.5897 2.526811590638723 10.045369857264161 7.308272372883135 0 0 0
188 63 1 0.5897 0.3025109830698417 11.514621733530435 5.433836917612842 1 0 0
564 188 1 0.5897 2.109665511010263 13.267639211830238 12.214625649017131 0 0 0
512 171 1 0.5897 0.3012814107039302 10.916866333766242 11.92045317331601 1 0 0
563 188 1 0.5897 1.9178772343230166 14.76218325331443 12.362532124914958 0 0 0
769 257 2 -1.1794 4.574555061858717 12.857388565514407 15.149812827765032 0 0 0
457 153 2 -1.1794 2.729693757721644 12.034908675735416 13.465450769787067 0 0 0
458 153 1 0.5897 2.0835990367753734 12.034955251031537 14.171800818952905 0 0 0
459 153 1 0.5897 3.4807189924893316 12.505559629987507 13.827153794046518 0 0 0
444 148 1 0.5897 2.5857346212583763 10.846231811819113 10.655221680852186 0 0 0
562 188 2 -1.1794 1.788747730190655 14.039511514987453 11.748145856181166 0 0 0
449 150 1 0.5897 4.716705918951876 10.848326307052615 11.124099865185968 0 0 0
758 253 1 0.5897 2.534150426201377 10.098843699597337 13.609651973760627 0 0 0
546 182 1 0.5897 3.0159051142055198 14.217644054329675 10.374247287043561 0 0 0
545 182 1 0.5897 4.431646968117335 14.578564549645675 10.771224687812492 0 0 0
442 148 2 -1.1794 1.6633635608446014 10.661809579236998 10.832823057348905 0 0 0
775 259 2 -1.1794 0.807577859336221 12.328035310296164 15.371774263226415 0 0 0
869 290 1 0.5897 3.0216522515693756 14.34366449084482 17.297684446693317 0 0 0
886 296 2 -1.1794 1.957040167087208 13.704093161087085 18.599672113794753 0 0 0
771 257 1 0.5897 4.229030821451342 13.42747812774443 15.836857339428084 0 0 0
868 290 2 -1.1794 3.741177190023695 14.698456600445416 16.775405892654064 0 0 0
773 258 1 0.5897 3.9423373825738177 10.546693886742483 17.247909715862672 0 0 0
774 258 1 0.5897 4.635081216575381 11.403076384311083 16.209152680925293 0 0 0
767 256 1 0.5897 1.4941920404581073 10.830551635240852 18.12171669539685 0 0 0
768 256 1 0.5897 1.6080935742296394 11.43888111003189 16.739944766491128 0 0 0
888 296 1 0.5897 2.2327670426900923 12.906382903092233 19.05142074624562 0 0 0
772 258 2 -1.1794 4.799914069286586 10.720382261186819 16.859680354051385 0 0 0
766 256 2 -1.1794 2.080572639758641 10.891809002708097 17.367545039205282 0 0 0
870 290 1 0.5897 4.493883922227995 14.689914891900896 17.366759636777303 0 0 0
777 259 1 0.5897 0.6561815244141568 13.234659400875623 15.639318048797186 0 0 0
887 296 1 0.5897 2.1581624328099402 14.40984942589424 19.214404882315744 0 0 0
229 77 2 -1.1794 4.669008003052348 19.279011130633705 2.1377658974064415 0 0 0
234 78 1 0.5897 3.23953278880811 17.479328544257513 3.9526706679066335 0 0 0
233 78 1 0.5897 4.469356623295527 17.82122029149531 3.138565719224763 0 0 0
235 79 2 -1.1794 0.9023880343581613 19.22351814827575 1.7855212945818444 0 0 0
226 76 2 -1.1794 1.5226899374865606 17.635984662906875 3.9011742811564805 0 0 0
890 297 1 0.5897 2.111816679208514 18.67340972145112 0.6440143753315791 0 0 1
230 77 1 0.5897 4.071963654991466 19.297717977860014 1.3897461443541521 0 0 0
227 76 1 0.5897 1.2187502023145027 18.26537020157347 3.247018360621738 0 0 0
219 73 1 0.5897 3.661435004297672 15.392915954976084 0.5019103154442285 0 0 0
232 78 2 -1.1794 4.16782844704222 17.26591073268544 3.8576778498485265 0 0 0
248 83 1 0.5897 1.0160264032138322 15.999468811160515 3.0005879775998716 0 0 0
228 76 1 0.5897 0.8481085247805291 17.65089457814896 4.580198320608243 0 0 0
221 74 1 0.5897 4.068703615055904 15.343312680562144 3.267466224890085 0 0 0
217 73 2 -1.1794 2.7632183434959012 15.606139131486948 0.2487582860276989 0 0 0
249 83 1 0.5897 1.729247655086888 15.361450292146587 1.8273170669543681 0 0 0
24 8 1 0.5897 2.465052183759954 19.716935277388433 5.1068960994010615 0 -1 0
247 83 2 -1.1794 1.0460025639491808 15.19818136728553 2.4776140972881993 0 0 0
218 73 1 0.5897 2.7516947370344735 16.561378674007347 0.18656686276649737 0 0 0
241 81 2 -1.1794 2.8877604773126637 18.593677124847616 6.523189739739307 0 0 0
542 181 1 0.5897 2.0147771720573173 15.602201689286312 8.358521981889592 0 0 0
243 81 1 0.5897 2.4224872188539193 18.967428763489323 7.271671566659828 0 0 0
543 181 1 0.5897 2.6949455505257025 15.380712061879391 7.024129576363389 0 0 0
541 181 2 -1.1794 2.687974463223621 15.964790545927327 7.782574439922617 0 0 0
572 191 1 0.5897 0.9396844790193123 15.73922040813113 10.023334887766538 0 0 0
559 187 2 -1.1794 0.7446959791841392 19.107274358390576 8.720538086059701 0 0 0
571 191 2 -1.1794 0.6433916661043548 15.154474756854551 9.325697344210052 0 0 0
242 81 1 0.5897 2.9205986772926362 17.654462321112554 6.705594930779188 0 0 0
555 185 1 0.5897 4.458551646998761 18.74677416585484 7.678805227735075 0 0 0
558 186 1 0.5897 4.453496242336773 17.754007947089868 9.788522556348184 0 0 0
576 192 1 0.5897 4.68143216971454 15.684031181079531 7.777746534031738 0 0 0
551 184 1 0.5897 1.2576759485235367 18.10659765181643 10.171968853130245 0 0 0
553 185 2 -1.1794 4.850512888725402 18.81237626702859 8.54969162010579 0 0 0
557 186 1 0.5897 4.236103882690609 16.28215563198394 10.069431244592145 0 0 0
866 289 1 0.5897 3.0423440883786044 15.871839125612553 14.200096849874999 0 0 0
550 184 2 -1.1794 1.5257133315635854 17.52030657462617 10.879672602106789 0 0 0
879 293 1 0.5897 4.272851318486355 18.763035455777867 14.818269745942565 0 0 0
565 189 2 -1.1794 2.867720873608474 18.7514143011956 13.803470798306858 0 0 0
566 189 1 0.5897 2.6025980047176254 17.846002819210398 13.64099955497263 0 0 0
867 289 1 0.5897 1.623611832031556 15.687450311713665 14.695323249914615 0 0 0
865 289 2 -1.1794 2.1333158340206397 15.848295438730943 13.901155323020847 0 0 0
567 189 1 0.5897 2.6648001673131776 19.210889933214645 12.988533445716252 0 0 0
552 184 1 0.5897 2.482369187508362 17.52565206864242 10.846392479820619 0 0 0
885 295 1 0.5897 1.6658901523505545 18.93022933997263 15.005234518403803 0 0 0
621 207 1 0.5897 0.22260763155939736 17.56332513895444 12.0507538270196 1 0 0
556 186 2 -1.1794 4.3175804766640296 17.13170101217764 10.503145629886061 0 0 0
898 300 2 -1.1794 4.9774711178536615 15.886642043086157 14.195388214071647 0 0 0
874 292 2 -1.1794 1.0472228536867898 17.27557873665961 17.603996470092724 0 0 0
878 293 1 0.5897 4.652038295805607 18.19991714175871 16.171562742166447 0 0 0
876 292 1 0.5897 0.661159742556793 17.665503567125832 18.388390130954466 0 0 0
882 294 1 0.5897 3.6594911024094534 16.4243235610229 16.934711203315967 0 0 0
880 294 2 -1.1794 3.757032032370496 17.302310096814615 17.303630693423703 0 0 0
881 294 1 0.5897 2.8647115944082064 17.571394409601318 17.522020804525688 0 0 0
875 292 1 0.5897 0.8547532855628054 17.90118096224187 16.905448171318852 0 0 0
877 293 2 -1.1794 4.966921682999251 18.7789698295473 15.477340725218589 0 0 0
897 299 1 0.5897 0.5362176987368606 15.851137677468005 16.602921794555044 0 0 0
895 299 2 -1.1794 0.40797868106396185 15.11803645832139 16.00078222830183 0 0 0
891 297 1 0.5897 2.8460858739269823 18.722717243171747 19.735891018627658 0 0 0
889 297 2 -1.1794 2.748946503960251 18.194814554211025 20.52855093217885 0 0 0
883 295 2 -1.1794 0.9152560657724708 19.17494556274156 15.54654252845543 0 0 0
873 291 1 0.5897 5.017529352054916 17.609388323856496 18.735469905191433 0 0 0
68 23 1 0.5897 8.178328841586723 2.2839839527432724 2.049402715564155 0 0 0
46 16 2 -1.1794 7.718623106611971 4.279019592668691 4.1049656120230935 0 0 0
67 23 2 -1.1794 7.651875397360317 1.9226709132709516 2.762629601257334 0 0 0
69 23 1 0.5897 6.76149416420983 1.8928227391035768 2.412383905926494 0 0 0
47 16 1 0.5897 7.752857643939183 3.419268984827206 3.6853170972625673 0 0 0
37 13 2 -1.1794 9.152178328288361 2.596285389774551 0.5737339716146252 0 0 0
48 16 1 0.5897 7.11345453240594 4.164501662870363 4.837762105476912 0 0 0
34 12 2 -1.1794 5.792928959044841 2.1674473635361124 0.7260061948486154 0 0 0
6 2 1 0.5897 5.366808736723722 1.3972492783764296 4.172505553004084 0 0 0
711 237 1 0.5897 8.992156906891488 4.49398090328776 0.44291480635498787 0 0 1
272 91 1 0.5897 7.533979669643226 0.21127865890608516 2.2340831079935137 0 1 0
53 18 1 0.5897 9.571541373868856 4.170018029129164 4.167096939668968 0 0 0
36 12 1 0.5897 5.922837950286169 3.01139639107529 0.2931743220174073 0 0 0
391 131 2 -1.1794 7.507908598937404 2.5150527562755465 9.034485191647056 0 0 0
377 126 1 0.5897 9.741807840801812 3.868127920466312 10.048675545457714 0 0 0
8 3 1 0.5897 5.653548727758035 3.8781913368477667 6.5177506835323396 0 0 0
392 131 1 0.5897 8.225037666016712 2.5900663084070805 8.404842466195106 0 0 0
358 120 2 -1.1794 5.086603519506926 2.240445127192147 7.230784033159253 0 0 0
362 121 1 0.5897 9.390892684395077 3.639249850218148 6.755340431840359 0 0 0
393 131 1 0.5897 7.487391021484943 1.5862109326665927 9.265367300383184 0 0 0
361 121 2 -1.1794 9.526720589730461 2.732494475324314 7.030653824308163 0 0 0
7 3 2 -1.1794 5.573958797837394 4.657586608106043 5.967596028559576 0 0 0
59 20 1 0.5897 9.298368779974357 1.3167254724077109 6.0047126809787335 0 0 0
360 120 1 0.5897 5.76603641595893 1.6321456940485348 6.939707106084876 0 0 0
28 10 2 -1.1794 6.435304448142283 0.5149545865204957 5.543664630538157 0 0 0
29 10 1 0.5897 7.389127354555102 0.5699621653589239 5.603021297868797 0 0 0
58 20 2 -1.1794 9.250405654173068 0.5053760999127139 5.498867657771812 0 0 0
382 128 2 -1.1794 8.146991942981277 0.6503321124663852 11.582392663713689 0 0 0
684 228 1 0.5897 5.641484975188859 3.471941682084984 13.544502850798947 0 0 0
372 124 1 0.5897 7.429880670561826 4.536463518296772 11.587863002991805 0 0 0
384 128 1 0.5897 8.815904892218205 0.71047776800436 10.900265669527958 0 0 0
685 229 2 -1.1794 9.038669717938534 2.2291892260092525 13.531398353360167 0 0 0
383 128 1 0.5897 8.530966707067938 1.099681969866348 12.335408916335195 0 0 0
353 118 1 0.5897 6.4842261751719175 0.7051669510483367 11.861383760149792 0 0 0
352 118 2 -1.1794 5.597170494702662 0.8274606509928539 12.19978650873038 0 0 0
686 229 1 0.5897 8.569835417442388 2.476527624299281 14.328512843713277 0 0 0
386 129 1 0.5897 8.955233224128236 4.529053081847212 13.371888577285732 0 0 0
354 118 1 0.5897 5.7049415995116055 1.4124030673137284 12.949891736602318 0 0 0
331 111 2 -1.1794 5.858370540697211 4.752781498452421 12.42321043249264 0 0 0
332 111 1 0.5897 5.156024695426236 4.428169128379431 11.859550584080457 0 0 0
370 124 2 -1.1794 8.077989612316689 4.299439592328557 10.924439947624213 0 0 0
682 228 2 -1.1794 5.519536931397076 2.6836539647638373 14.073828698604178 0 0 0
687 229 1 0.5897 9.958130770912794 2.193018003148714 13.79521842984889 0 0 0
371 124 1 0.5897 7.71980217797767 3.5152122741244645 10.508335734493171 0 0 0
676 226 2 -1.1794 5.909051365903302 0.6210311176421478 18.97310130620597 0 0 0
717 239 1 0.5897 6.822971506132751 2.622967537213048 15.628745307243115 0 0 0
655 219 2 -1.1794 6.1069352381671465 4.566510479378463 19.856623617357368 0 0 0
708 236 1 0.5897 7.903328685127931 0.9624552212492943 18.636204617672224 0 0 0
706 236 2 -1.1794 8.843256029008769 1.0129763653713613 18.810326932926827 0 0 0
656 219 1 0.5897 5.348931469826697 4.3686527230156695 19.30649793413677 0 0 0
716 239 1 0.5897 7.600472746755751 1.3294295298168395 15.749962797017005 0 0 0
694 232 2 -1.1794 8.13924505393514 4.2223443572183585 17.849810183505525 0 0 0
707 236 1 0.5897 9.033130813678527 0.2325435994437718 19.331222261977103 0 0 0
695 232 1 0.5897 8.07494343675999 3.6181574496397513 17.110074988890393 0 0 0
677 226 1 0.5897 5.414977768791046 0.8258530894066463 18.179170227307463 0 0 0
38 13 1 0.5897 8.977992671668883 2.036779432423077 20.23176185474254 0 0 -1
657 219 1 0.5897 6.862900092879145 4.365022281519065 19.305024733407173 0 0 0
715 239 2 -1.1794 7.6600294793503485 2.2681069677720953 15.928361146076739 0 0 0
35 12 1 0.5897 5.905635659685323 1.52053184289923 20.444428230244686 0 0 -1
175 59 2 -1.1794 7.350613082149812 9.108667057470853 1.9394578990545783 0 0 0
55 19 2 -1.1794 7.561283881555579 6.26423305164163 2.0513088976549803 0 0 0
57 19 1 0.5897 7.514506613964381 5.777659085655208 2.8743932723458894 0 0 0
177 59 1 0.5897 7.268947899144867 8.17962586648179 2.15554632274098 0 0 0
709 237 2 -1.1794 9.275408468988385 5.396977655414627 0.29854842463926357 0 0 1
176 59 1 0.5897 7.9364069306836305 9.128436061388578 1.1826033639132272 0 0 0
166 56 2 -1.1794 8.624657030628498 7.453761671920392 4.869585113461825 0 0 0
710 237 1 0.5897 8.689024902759575 5.922464595680458 0.8429945014755272 0 0 1
56 19 1 0.5897 6.843741403916244 5.913123429424399 1.523837792654317 0 0 0
155 52 1 0.5897 8.334018676351077 9.914706432532945 3.4706623214852077 0 0 0
138 46 1 0.5897 6.7865805085667965 7.394375815166215 4.806022041313391 0 0 0
142 48 2 -1.1794 5.086542129193976 9.401684644846764 0.2616154082697566 0 0 0
149 50 1 0.5897 9.823164625963337 8.004278741248946 3.6909756432294083 0 0 0
136 46 2 -1.1794 5.8478477044175 7.414466061897231 4.992316795263189 0 0 0
143 48 1 0.5897 5.3994821294816635 9.643304988662596 1.1334393387284285 0 0 0
168 56 1 0.5897 8.563158921505629 8.123233517615606 5.551074452772479 0 0 0
381 127 1 0.5897 7.7933828336373425 5.5086211782329935 9.611662293850095 0 0 0
500 167 1 0.5897 7.387338189474646 9.36690775909915 9.67030310002449 0 0 0
338 113 1 0.5897 5.772220866522517 5.589294467813541 8.423960106082001 0 0 0
499 167 2 -1.1794 7.306566207915677 8.554490434585567 9.17039497519745 0 0 0
501 167 1 0.5897 6.609474631178906 8.729998971651073 8.538240472167814 0 0 0
379 127 2 -1.1794 7.666873731480354 5.980488748189748 8.788430729774372 0 0 0
470 157 1 0.5897 8.407468337510162 8.924934938083052 7.781333232480941 0 0 0
467 156 1 0.5897 5.488321785417102 8.535485036289622 6.519945921194488 0 0 0
380 127 1 0.5897 7.539552350939198 6.892112222253575 9.051408785083508 0 0 0
469 157 2 -1.1794 8.761466575072602 9.135876685942891 6.91728384637727 0 0 0
137 46 1 0.5897 5.635425806253572 6.517802801463376 5.251821466688421 0 0 0
62 21 1 0.5897 8.630268752734867 5.692832022636626 7.450159899864365 0 0 0
466 156 2 -1.1794 5.428076479100784 9.18297405939536 7.222466769781651 0 0 0
471 157 1 0.5897 9.710201007658016 9.150803972421935 7.043750551174184 0 0 0
61 21 2 -1.1794 9.250014136863797 5.639886132892328 6.722503964551814 0 0 0
167 56 1 0.5897 8.953628671026564 6.678083037213229 5.324038524438581 0 0 0
793 265 2 -1.1794 9.222730338644036 9.152713606320555 14.185622246356704 0 0 0
491 164 1 0.5897 8.908501821552763 7.666690913504096 11.144422632667846 0 0 0
460 154 2 -1.1794 5.54345448951493 7.421264184909311 12.0178559721031 0 0 0
705 235 1 0.5897 7.86565714440916 5.742999576034888 15.320178352977496 0 0 0
791 264 1 0.5897 6.176580463293551 9.271380896763826 14.552006913116564 0 0 0
794 265 1 0.5897 8.981049379368205 8.632949554808988 13.418935120978475 0 0 0
490 164 2 -1.1794 8.40573871188323 7.443087688679737 11.927747848046613 0 0 0
333 111 1 0.5897 5.731357320830378 5.701445872083927 12.442821276475714 0 0 0
492 164 1 0.5897 7.491168463508013 7.530721385789275 11.659030143468044 0 0 0
461 154 1 0.5897 5.491278984605579 8.16607338497593 12.617015065092136 0 0 0
385 129 2 -1.1794 9.10332488938631 5.278645272086696 13.948630302576728 0 0 0
387 129 1 0.5897 8.984600570021449 6.042806891850354 13.38438358556574 0 0 0
790 264 2 -1.1794 5.645028623587818 9.582221111998383 13.819056792805622 0 0 0
703 235 2 -1.1794 7.262237914523673 6.176447691931368 15.923829643796577 0 0 0
815 272 1 0.5897 9.169844905362044 6.521573022196815 19.161317448724336 0 0 0
816 272 1 0.5897 8.944586068622236 8.006038434308563 19.356628252958203 0 0 0
784 262 2 -1.1794 6.035599443505773 7.218317759916887 19.275607997424135 0 0 0
825 275 1 0.5897 7.042226069118603 8.170321661651656 16.29805558230006 0 0 0
786 262 1 0.5897 6.926233641402649 7.311295941141665 18.937287312858697 0 0 0
814 272 2 -1.1794 8.84373306650434 7.303014818971218 18.714729287458738 0 0 0
785 262 1 0.5897 5.984656199369951 6.3090723245031155 19.570744496556056 0 0 0
823 275 2 -1.1794 7.344321856286398 9.07477598238459 16.2136664547116 0 0 0
145 49 2 -1.1794 9.204304391371876 9.484493895514312 20.430119562054298 0 0 -1
696 232 1 0.5897 7.978485285502354 5.085893918548341 17.4691583297547 0 0 0
762 254 1 0.5897 5.101388618834332 7.805559332661413 17.92564174069588 0 0 0
144 48 1 0.5897 5.577657187733349 8.610079305164666 20.456163720795654 0 0 -1
704 235 1 0.5897 6.399945091295901 5.833837380064341 15.688405283789468 0 0 0
824 275 1 0.5897 8.048996957150962 9.03310013210666 15.56709177604862 0 0 0
164 55 1 0.5897 7.834002504441859 11.894814402880595 2.9664102940049073 0 0 0
121 41 2 -1.1794 5.178544878314411 12.334781489255908 1.7563778082175008 0 0 0
156 52 1 0.5897 9.365775440600718 10.742228467394762 4.207507982369113 0 0 0
165 55 1 0.5897 6.7468317749600315 12.638713217158065 2.2201222444527535 0 0 0
818 273 1 0.5897 8.399580209005862 12.164357095642824 0.554158613519739 0 0 1
163 55 2 -1.1794 7.686412421374937 12.654236080135359 2.4025420419833763 0 0 0
154 52 2 -1.1794 8.421849274619547 10.648969101468477 4.078596777227514 0 0 0
275 92 1 0.5897 9.397160887926741 14.223277116417268 4.68493636580847 0 0 0
285 95 1 0.5897 8.125003667495402 14.594524146903638 2.2113167484938603 0 0 0
245 82 1 0.5897 5.566947283997276 14.30700278027428 4.478333208686645 0 0 0
116 39 1 0.5897 7.09325531002654 11.114186228297019 5.179399912880484 0 0 0
244 82 2 -1.1794 6.084415646476188 13.986057602103282 5.216957444423797 0 0 0
276 92 1 0.5897 7.9980303240946355 13.814741490750862 5.09447067208837 0 0 0
117 39 1 0.5897 6.175128123081048 10.514755253444775 6.2234304520030905 0 0 0
487 163 2 -1.1794 7.630380824703105 12.589017937807995 8.422800040053229 0 0 0
115 39 2 -1.1794 6.248894094573603 11.24646188266392 5.610557518351155 0 0 0