LAMMPS data file via write_data, version 30 Jul 2021, timestep = 500000

972 atoms
2 atom types
648 bonds
1 bond types
324 angles
1 angle types

-0.053223610415457756 20.033222610414107 xlo xhi
-0.05395372374060692 20.053954723742535 ylo yhi
-0.20340366391498677 20.833401663914067 zlo zhi
-0.1228967341542302 -0.12587322418072708 0.25756351943013445 xy xz yz

Masses

1 1.008
2 15.999

Pair Coeffs # lj/cut/tip4p/long/omp

1 0 0
2 0.21084 3.1668

Bond Coeffs # harmonic/omp

1 450 0.9572

Angle Coeffs # harmonic/omp

1 55 104.52

Atoms # full

146 49 1 0.5897 9.395991212497377 9.652225825652799 -0.15640844461765763 0 0 0
572 191 1 0.5897 0.9990433067396598 16.109517770077304 9.598946128915037 0 0 0
4 2 2 -1.1794 4.35192987495808 1.5898753794157792 3.3801448359458504 0 0 0
5 2 1 0.5897 3.5477893999484045 1.4944286830862832 3.8905507999143225 0 0 0
6 2 1 0.5897 5.050835542822472 1.339369828792779 3.9841560630446695 0 0 0
7 3 2 -1.1794 5.9294872827141765 4.681228626112953 5.618214488537887 0 0 0
8 3 1 0.5897 5.848407188162607 3.946962204044092 6.226880820859863 0 0 0
9 3 1 0.5897 5.168612557528076 4.601104524401733 5.0430977402459085 0 0 0
10 4 2 -1.1794 1.2349439369105641 4.274615877535856 3.4490877634604096 0 0 0
11 4 1 0.5897 0.7213352263133368 4.376001083904071 4.2503749919813245 0 0 0
12 4 1 0.5897 2.138628616154338 4.187844510949471 3.7524483816432133 0 0 0
13 5 2 -1.1794 4.143231995733681 6.055270573552117 1.6269950051322628 0 0 0
14 5 1 0.5897 3.721064703124465 5.980206896723892 0.7713566199633096 0 0 0
15 5 1 0.5897 5.078010677493234 5.963814416944579 1.4422750301230685 0 0 0
16 6 2 -1.1794 3.987453636673407 4.368319682571315 3.7201033843489597 0 0 0
17 6 1 0.5897 4.035605951315452 4.909060953167132 2.9318296173066747 0 0 0
18 6 1 0.5897 4.174506679391771 3.48072240113351 3.414239152344544 0 0 0
19 7 2 -1.1794 0.7195330821529636 5.934969546850237 1.2118247853193356 0 0 0
20 7 1 0.5897 0.8983481642680009 5.414524144065248 1.9949077109532252 0 0 0
21 7 1 0.5897 0.8132269497911626 6.842920907461477 1.5003295560405145 0 0 0
22 8 2 -1.1794 2.0026332544364576 1.1647644612427093 4.833736355527258 0 0 0
23 8 1 0.5897 2.330602154655538 1.8605996417021171 5.403383209054127 0 0 0
24 8 1 0.5897 2.2979209416187136 0.3547370430901421 5.249559719498052 0 0 0
25 9 2 -1.1794 2.3726511706275617 5.334788478284842 7.100537472568808 0 0 0
26 9 1 0.5897 2.246530433410337 5.796061579875349 6.271475223124221 0 0 0
27 9 1 0.5897 3.222374045263648 5.6403094321343 7.41812633234992 0 0 0
28 10 2 -1.1794 6.202113213892897 0.6464289467315869 5.2095891755728685 0 0 0
29 10 1 0.5897 7.141551096502141 0.8280887623154756 5.182014241847113 0 0 0
30 10 1 0.5897 6.012878176416174 19.810481168669348 5.06416577901308 0 -1 0
31 11 2 -1.1794 0.7379265685444822 2.1122370696998884 1.8521389492977933 0 0 0
32 11 1 0.5897 0.9841821534878463 1.2722091925823347 2.2394246654479106 0 0 0
33 11 1 0.5897 0.8842636214173297 2.7506538046548425 2.5501378642622896 0 0 0
629 210 1 0.5897 17.17027325262753 18.303182177687532 9.389248267921174 0 0 0
322 108 2 -1.1794 18.585268001318482 15.693792273102602 0.16245092584799814 0 0 0
36 12 1 0.5897 5.647510645453373 2.312524779673498 0.644082786724988 0 0 0
675 225 1 0.5897 1.8192669016650929 5.500234462009995 -0.1142909343181153 0 0 1
552 184 1 0.5897 0.7697790332237111 18.391538972074493 9.667218514108736 0 0 0
40 14 2 -1.1794 11.072506735227478 1.0257294048997507 3.1190372348833932 0 0 0
41 14 1 0.5897 10.221191482889807 0.9533278637874594 3.5506699815105196 0 0 0
42 14 1 0.5897 11.707980592248129 0.9885129646221202 3.833740414588285 0 0 0
43 15 2 -1.1794 12.650999193959253 4.658119247718334 5.40869583376491 0 0 0
44 15 1 0.5897 13.4941526403447 4.4727796440296395 4.995147324549887 0 0 0
45 15 1 0.5897 12.653083738850436 5.6058402527822775 5.543718345534461 0 0 0
46 16 2 -1.1794 7.775221184614761 3.893637458328803 3.7904639349068736 0 0 0
47 16 1 0.5897 8.650856696465647 4.008381743999343 4.159587729255257 0 0 0
48 16 1 0.5897 7.181701460414675 4.078343865012258 4.5183401391289015 0 0 0
49 17 2 -1.1794 11.175963164408719 5.616233992552937 1.7065626644768452 0 0 0
50 17 1 0.5897 10.500454217457484 5.556634823068059 1.0311361741799958 0 0 0
51 17 1 0.5897 10.984909255542387 4.8911026087649745 2.3014504580405064 0 0 0
52 18 2 -1.1794 10.643369995344985 3.747453470477783 3.6641613121242584 0 0 0
53 18 1 0.5897 11.289420159519086 4.035585629719081 4.308907367416705 0 0 0
54 18 1 0.5897 10.903062395966458 2.8518236902587057 3.4478365936552353 0 0 0
55 19 2 -1.1794 7.0140721683191405 5.962640637446789 1.7859007001253477 0 0 0
56 19 1 0.5897 7.156648782365665 5.363698966716778 2.518717127080952 0 0 0
57 19 1 0.5897 7.702833076274188 5.742536044831502 1.1586893819059074 0 0 0
58 20 2 -1.1794 8.886391392589642 1.042612354728164 4.890020675864254 0 0 0
59 20 1 0.5897 9.055351081627077 1.8668607150097056 5.3465071523584315 0 0 0
60 20 1 0.5897 8.97668354808315 0.3708628837852709 5.56585593463464 0 0 0
61 21 2 -1.1794 9.42279416058737 5.78643237149081 6.530841023827393 0 0 0
62 21 1 0.5897 10.182651329260507 5.9064484837314986 7.100332846309033 0 0 0
63 21 1 0.5897 8.696860780050322 6.183310658399023 7.01228519589502 0 0 0
64 22 2 -1.1794 12.878210724713226 0.7366421993924833 5.200466254424928 0 0 0
65 22 1 0.5897 13.727861454329881 0.9105235905721266 4.7953063093765005 0 0 0
66 22 1 0.5897 12.820672028825749 1.367995635182352 5.917594310311405 0 0 0
67 23 2 -1.1794 7.116036917181442 1.9576732604044316 1.6906412186914552 0 0 0
68 23 1 0.5897 7.303029318439675 2.5829179386313195 2.3908427679458923 0 0 0
69 23 1 0.5897 7.905957767941602 1.9596085468442084 1.150015445514241 0 0 0
110 37 1 0.5897 3.2274550246500557 9.092847825818776 0.029556787857558803 0 0 0
72 24 1 0.5897 12.494899449154353 2.426004629001386 0.9039715258559771 0 0 0
372 124 1 0.5897 7.957908151028581 3.6717967907300335 10.052139038307052 0 0 0
76 26 2 -1.1794 17.904256980411926 1.483285827871998 3.167621747712398 0 0 0
77 26 1 0.5897 18.20731493011728 0.8103078259958971 2.558093778203108 0 0 0
78 26 1 0.5897 18.463822071868744 1.3794743168238468 3.937110393589421 0 0 0
79 27 2 -1.1794 19.554704990559745 4.6434818250608565 5.395185777211275 0 0 0
80 27 1 0.5897 19.66652416441858 5.5900865094046 5.306605070640959 0 0 0
81 27 1 0.5897 18.78696398536762 4.441365331450208 4.8605210486881845 0 0 0
82 28 2 -1.1794 14.918577014817094 4.113989252061515 3.7259069236640086 0 0 0
83 28 1 0.5897 14.590589940577383 4.789308541667736 3.1321747389486023 0 0 0
84 28 1 0.5897 14.653295457294462 3.2883550265566046 3.3205727033720276 0 0 0
85 29 2 -1.1794 18.059408688483206 5.797236898599271 1.4373784267886867 0 0 0
86 29 1 0.5897 18.06440632696035 5.218303248035037 2.19954451462889 0 0 0
87 29 1 0.5897 18.95990139870459 5.775337737621623 1.1134545368417865 0 0 0
88 30 2 -1.1794 17.638621333674603 4.144971997623255 3.4827447265688605 0 0 0
89 30 1 0.5897 17.705553962247865 3.2290335147213867 3.2126205636993483 0 0 0
90 30 1 0.5897 16.697461906490563 4.312069627994052 3.5334531370707243 0 0 0
91 31 2 -1.1794 14.036992646217827 5.830920723445713 1.779693921657924 0 0 0
92 31 1 0.5897 14.181530165062176 6.757264206972036 1.9730908169077712 0 0 0
93 31 1 0.5897 13.091642639849388 5.757779034915048 1.6485414884410095 0 0 0
94 32 2 -1.1794 15.764577801664235 0.722474378202212 4.838344083172907 0 0 0
95 32 1 0.5897 15.981795453476263 1.3629910760674304 5.515643290349336 0 0 0
96 32 1 0.5897 16.50690789548475 0.7505482185095073 4.234692765900216 0 0 0
97 33 2 -1.1794 15.826803924227708 5.513024089787248 6.366999495995882 0 0 0
98 33 1 0.5897 16.56309647602486 5.6610669505794835 6.960340899475872 0 0 0
99 33 1 0.5897 15.749032421256825 6.329218666242376 5.873002559011525 0 0 0
100 34 2 -1.1794 19.501057851498718 0.7365212791537811 5.462725594938153 0 0 0
101 34 1 0.5897 0.35410085212208303 0.8175827040473782 5.298117379531588 1 0 0
102 34 1 0.5897 19.22786021305842 19.90189768732244 5.536592380820487 0 -1 0
103 35 2 -1.1794 14.023016817161105 1.9831957334551054 2.068688825063646 0 0 0
104 35 1 0.5897 14.712271951825924 2.127026321013568 1.4202580034542134 0 0 0
105 35 1 0.5897 13.953367978870334 1.0309391653404367 2.137738459273457 0 0 0
179 60 1 0.5897 11.243707742234147 8.581262921839041 0.7157765780030522 0 0 0
341 114 1 0.5897 4.2009031833830575 4.855031641594478 9.577565740203424 0 0 0
108 36 1 0.5897 19.190444238168396 2.5309699427429595 0.8494784199212606 0 0 0
963 321 1 0.5897 15.598567982311211 19.301761063475432 0.24331962290689513 0 0 1
436 146 2 -1.1794 3.9094592714727265 8.201806445782443 10.298461022627858 0 0 0
112 38 2 -1.1794 3.965892531767132 8.409791495600457 3.4140776045288463 0 0 0
113 38 1 0.5897 4.548405614259239 8.122430809070131 4.117023432934796 0 0 0
114 38 1 0.5897 3.9967238060910653 7.70051360146163 2.7720434638793727 0 0 0
115 39 2 -1.1794 5.814940779267927 11.375493696907082 5.33778524009248 0 0 0
116 39 1 0.5897 6.604281770127263 11.166036002532907 4.838449555883079 0 0 0
117 39 1 0.5897 5.885872158452639 12.313254668726255 5.516620131538333 0 0 0
118 40 2 -1.1794 0.8235002547663903 10.538996154466453 3.628228503335774 0 0 0
119 40 1 0.5897 0.7637498498824236 9.74383930028051 3.0986419169388633 0 0 0
120 40 1 0.5897 1.761531583691573 10.722282900030718 3.680976490204062 0 0 0
121 41 2 -1.1794 4.701372748554853 12.507316181977208 1.412520777576664 0 0 0
122 41 1 0.5897 4.397064923041302 11.875886347584963 2.064365845764434 0 0 0
123 41 1 0.5897 4.039947028792572 12.476151467487528 0.7214403553933305 0 0 0
124 42 2 -1.1794 3.636402337235926 11.067929441339407 3.514851586786692 0 0 0
125 42 1 0.5897 4.241251828680714 11.280773380866185 4.225419658831678 0 0 0
126 42 1 0.5897 3.7905701612208835 10.139778364735596 3.338314781947933 0 0 0
127 43 2 -1.1794 0.3151697343379642 12.269151440513074 1.699490441065686 0 0 0
128 43 1 0.5897 19.46520616808654 12.301609487034941 1.5037541354318071 -1 0 0
129 43 1 0.5897 0.3860001422061725 11.657359467038317 2.432154108001071 0 0 0
130 44 2 -1.1794 1.9365032654337773 7.382236070897572 5.21979122979668 0 0 0
131 44 1 0.5897 2.3160937856981945 7.673873019510721 4.39095686245103 0 0 0
132 44 1 0.5897 0.9916254698899885 7.38915116941995 5.066801115805126 0 0 0
133 45 2 -1.1794 2.4723085187074822 12.34963200189418 6.757080192735209 0 0 0
134 45 1 0.5897 3.273254664790053 12.548054523553697 7.242138521835804 0 0 0
135 45 1 0.5897 2.4149010860143076 11.394134138770037 6.768980572436169 0 0 0
136 46 2 -1.1794 5.806884174998055 7.336544380311438 5.314783153057509 0 0 0
137 46 1 0.5897 5.762243974997884 6.381709965308682 5.366617151813381 0 0 0
138 46 1 0.5897 6.652087736086504 7.51527786985235 4.902499637573453 0 0 0
139 47 2 -1.1794 0.5637293660111053 8.529477374923507 1.9160792230457417 0 0 0
140 47 1 0.5897 19.727905106279078 8.676379883163394 1.706165932944548 -1 0 0
141 47 1 0.5897 1.0376914163773794 8.835655579466655 1.1429357699065381 0 0 0
34 12 2 -1.1794 5.1381059411275505 2.5458577076955002 -0.13183178211446261 0 0 0
183 61 1 0.5897 15.387575563574828 9.223537402723903 0.490522231744115 0 0 0
142 48 2 -1.1794 4.980585025382847 9.183248220207698 0.23869680695813006 0 0 0
147 49 1 0.5897 8.495385146095382 8.717428288837658 0.6227732235947473 0 0 0
148 50 2 -1.1794 10.905802301493221 7.99022787058796 3.1949624206253504 0 0 0
149 50 1 0.5897 10.139574890598519 7.850466042256642 3.7513972459469325 0 0 0
150 50 1 0.5897 10.91035495285219 7.240245045667197 2.6001666695224923 0 0 0
151 51 2 -1.1794 12.545380680501959 11.365854477437713 5.6241796707497125 0 0 0
152 51 1 0.5897 11.981970283343118 11.301875432233883 4.853145529905482 0 0 0
153 51 1 0.5897 13.362717354576588 10.943421063477695 5.359946963462656 0 0 0
154 52 2 -1.1794 8.23260330782986 10.727374586830914 3.7431960568477316 0 0 0
155 52 1 0.5897 7.810180419273222 9.955719384374431 3.365788427018412 0 0 0
156 52 1 0.5897 8.057664677892618 11.428228506188153 3.115210079703572 0 0 0
157 53 2 -1.1794 11.331943052074115 12.622069843844129 1.3967919958663104 0 0 0
158 53 1 0.5897 11.37252793432188 11.965439432595625 2.0920112311316075 0 0 0
159 53 1 0.5897 11.08668703531471 13.431566899508772 1.8450148582637853 0 0 0
160 54 2 -1.1794 10.983576431845872 10.875137731369133 3.497221287491718 0 0 0
161 54 1 0.5897 10.035747870529802 10.889443996173608 3.6303109553902657 0 0 0
162 54 1 0.5897 11.209206764185685 9.945019937953854 3.4781107331073926 0 0 0
163 55 2 -1.1794 7.338378298079551 12.735947202388676 2.0291502052448362 0 0 0
164 55 1 0.5897 7.416975709610917 13.687932116579018 1.9663513047646046 0 0 0
165 55 1 0.5897 6.404069219978201 12.563959001588042 1.9119004708349463 0 0 0
166 56 2 -1.1794 8.694783783524922 7.678072147622199 4.830273539769999 0 0 0
167 56 1 0.5897 9.06470765238866 6.960372213464748 5.344328872954193 0 0 0
168 56 1 0.5897 8.765669928304455 8.443515412456584 5.400673692786593 0 0 0
169 57 2 -1.1794 9.15920196026288 12.128487097419711 6.983217432813804 0 0 0
170 57 1 0.5897 9.123111176347273 12.760939401075237 6.265710498834952 0 0 0
171 57 1 0.5897 9.994948474509199 12.303810624386841 7.415623293559041 0 0 0
172 58 2 -1.1794 12.482859957727388 7.400103425049652 5.485617248972293 0 0 0
173 58 1 0.5897 12.138534249595862 7.555062775864065 4.60619422390962 0 0 0
174 58 1 0.5897 13.411150169123536 7.625204609295178 5.422996861504656 0 0 0
175 59 2 -1.1794 7.045263499427309 8.65321577317945 1.8758378679080319 0 0 0
176 59 1 0.5897 6.259628807831357 8.84250878849907 1.3629452175848333 0 0 0
177 59 1 0.5897 7.066380212458261 7.6982383252127295 1.9388710463039542 0 0 0
291 97 1 0.5897 15.422491463992968 16.11592050286731 0.016703940917319055 0 0 0
782 261 1 0.5897 1.670241071777862 11.931634507669642 0.39233574197384824 0 0 1
407 136 1 0.5897 14.635114540829575 5.2477963704309945 9.976330336309221 0 0 0
215 72 1 0.5897 18.556942763466225 8.293995419851399 0.04920917703510508 0 0 0
184 62 2 -1.1794 17.288065781217785 7.789781406210612 3.215230731098052 0 0 0
185 62 1 0.5897 17.56018203348849 7.351522266103198 2.4089882041087707 0 0 0
186 62 1 0.5897 17.380043545970867 8.723237591750529 3.023944212937163 0 0 0
187 63 2 -1.1794 18.957350162875986 11.189328727222644 5.6741301649398626 0 0 0
188 63 1 0.5897 18.908665265051507 12.144546982414488 5.714040730833823 0 0 0
189 63 1 0.5897 19.644441575746033 11.010656863190748 5.032098546227168 0 0 0
190 64 2 -1.1794 14.636521825450178 11.189151315638215 3.778452644734131 0 0 0
191 64 1 0.5897 14.482451197749079 11.764061182932574 3.028903167030152 0 0 0
192 64 1 0.5897 15.585133011464771 11.061786770031103 3.792157791451812 0 0 0
193 65 2 -1.1794 17.72551686908414 12.722045533923808 1.429553473573865 0 0 0
194 65 1 0.5897 17.71997330506609 13.528815197976602 1.9447330987070068 0 0 0
195 65 1 0.5897 17.1289200286814 12.897880164611053 0.702123382465661 0 0 0
196 66 2 -1.1794 17.359381156026974 10.64246782836686 3.3506447851300076 0 0 0
197 66 1 0.5897 17.524418131350327 11.337589775656173 2.7136451209939145 0 0 0
198 66 1 0.5897 17.768400384960803 10.954731760370212 4.157639325138261 0 0 0
199 67 2 -1.1794 14.074366217390766 12.705315364299912 1.5519825361129043 0 0 0
200 67 1 0.5897 13.12573608685937 12.734165395948455 1.4273769418417144 0 0 0
201 67 1 0.5897 14.331474803823419 13.622144280001473 1.6506537486746244 0 0 0
202 68 2 -1.1794 15.109889692428258 7.940512908352472 4.952658038008253 0 0 0
203 68 1 0.5897 15.32830957160361 8.590479082073273 5.620520118488334 0 0 0
204 68 1 0.5897 15.82457141123154 7.998645373005711 4.3185657232233305 0 0 0
205 69 2 -1.1794 15.692943307725951 11.943661042215611 6.432362276518849 0 0 0
206 69 1 0.5897 15.044938702744078 12.285113170193327 7.048589806312481 0 0 0
207 69 1 0.5897 15.711177844908105 11.00147293369366 6.600685357816077 0 0 0
208 70 2 -1.1794 19.224791372059446 7.462328880249222 5.164680309100911 0 0 0
209 70 1 0.5897 18.50713973361582 7.580499981566089 4.542532465902764 0 0 0
210 70 1 0.5897 18.90256485908528 7.849076914723645 5.978767421334666 0 0 0
211 71 2 -1.1794 14.420811996461115 8.604598444226866 1.9856174567698819 0 0 0
212 71 1 0.5897 14.391010245134149 9.294792379457046 2.648167145198663 0 0 0
213 71 1 0.5897 13.636940873974 8.747257297701038 1.4552454713860838 0 0 0
546 182 1 0.5897 3.89138618421042 15.774673932089485 9.92380718969142 0 0 0
443 148 1 0.5897 1.126442818428714 11.887339203913864 9.82853483844844 0 0 0
444 148 1 0.5897 1.1074274795147632 10.38419864271748 10.008813589701134 0 0 0
218 73 1 0.5897 2.178141850864748 15.77261133404625 1.0016608888723126 0 0 0
220 74 2 -1.1794 4.00404261193861 14.548056678471346 3.2775426531917273 0 0 0
221 74 1 0.5897 3.1917588498080955 14.41578144885078 3.766392761387373 0 0 0
222 74 1 0.5897 3.998290254550657 13.860063034156978 2.6120678206889747 0 0 0
223 75 2 -1.1794 5.588577861460645 17.957040642132057 5.097420927826224 0 0 0
224 75 1 0.5897 4.790727533655937 17.637219706901625 4.676320047725458 0 0 0
225 75 1 0.5897 6.300592496450715 17.570496673098923 4.587622524169076 0 0 0
226 76 2 -1.1794 0.9482929454863371 17.38279645544349 3.844054155356141 0 0 0
227 76 1 0.5897 0.7446744417924708 16.629070686555437 3.2902505790333634 0 0 0
228 76 1 0.5897 1.904575037263804 17.401094013798613 3.882315427327499 0 0 0
229 77 2 -1.1794 4.555416686784095 19.39863288955128 1.7895950373497524 0 0 0
230 77 1 0.5897 4.508256012327461 0.16532874284061472 2.139622881122971 0 1 0
231 77 1 0.5897 5.509474209933251 19.343439968674666 1.734693645876814 0 0 0
232 78 2 -1.1794 3.629545501222592 17.310282440886375 3.3661541428388677 0 0 0
233 78 1 0.5897 3.8266934757468563 16.402838194620493 3.1336283007898595 0 0 0
234 78 1 0.5897 3.9135072647958924 17.819709202342004 2.607211142278052 0 0 0
235 79 2 -1.1794 1.0396003941173193 19.14592286452467 1.6431745141690595 0 0 0
236 79 1 0.5897 1.2113204829731707 18.546596012672566 2.3694042283239076 0 0 0
237 79 1 0.5897 1.6469742474737397 18.870828201631134 0.9564219443201234 0 0 0
238 80 2 -1.1794 1.8849405549390448 14.452585807046173 5.120373254796505 0 0 0
239 80 1 0.5897 0.9534244413355608 14.392917795043594 4.908341451523646 0 0 0
240 80 1 0.5897 2.045836269142645 13.711844276373649 5.704846248713315 0 0 0
241 81 2 -1.1794 2.274671573596771 19.199172219412375 6.60066545766654 0 0 0
242 81 1 0.5897 2.252955509014535 18.24817360075845 6.493216902860515 0 0 0
243 81 1 0.5897 3.0270980098936 19.359244566484378 7.1701695999928665 0 0 0
244 82 2 -1.1794 5.951790009623965 14.1474650986425 5.292494431139184 0 0 0
245 82 1 0.5897 5.7768951102487875 14.764204262266627 6.00330936998392 0 0 0
246 82 1 0.5897 5.277512851620699 14.336115546245978 4.639976258977879 0 0 0
247 83 2 -1.1794 0.44449903507352384 15.183084491362191 1.9203323677121196 0 0 0
248 83 1 0.5897 19.751708703961665 15.37886562004167 1.4001757758149436 -1 0 0
249 83 1 0.5897 0.4330028499212659 14.231155191830128 2.0208350561038397 0 0 0
711 237 1 0.5897 8.987216694633702 4.100463648012217 -0.13831111238070531 0 0 1
216 72 1 0.5897 17.38462828610984 9.203992227513812 0.3486919909464349 0 0 0
250 84 2 -1.1794 5.283853582663362 15.82523746304931 0.3557912079528459 0 0 0
927 309 1 0.5897 8.24940928334105 19.092308666146835 -0.07432824620316258 0 0 1
256 86 2 -1.1794 10.68567719024854 14.689063636299238 3.1663991572700927 0 0 0
257 86 1 0.5897 10.723052683870206 15.635167226683418 3.0254112588934636 0 0 0
258 86 1 0.5897 9.86499226116777 14.549042551525602 3.638779993652355 0 0 0
259 87 2 -1.1794 12.852375760739546 17.72643046544949 5.4657252371157945 0 0 0
260 87 1 0.5897 12.83196952251219 18.63273724672697 5.773250577447895 0 0 0
261 87 1 0.5897 12.559704488494976 17.21117148796845 6.2173905727061625 0 0 0
262 88 2 -1.1794 7.981605073868721 17.614757903559706 3.3731254992076125 0 0 0
263 88 1 0.5897 7.8992914103022756 16.883894841584706 2.7604858749166135 0 0 0
264 88 1 0.5897 8.92091634038366 17.678289127694818 3.546036166263755 0 0 0
265 89 2 -1.1794 11.357102093263354 19.16980480662852 1.2352788408405098 0 0 0
266 89 1 0.5897 11.25778518212873 19.913840447512236 1.8292747358525565 0 0 0
267 89 1 0.5897 10.665797483155256 19.288778031807468 0.5841424894063522 0 0 0
268 90 2 -1.1794 10.745200412143936 17.47837698771432 3.317712896161148 0 0 0
269 90 1 0.5897 11.042613924855234 18.054032253656842 2.6131971775647007 0 0 0
270 90 1 0.5897 11.407312138501702 17.575112670544613 4.002037675358093 0 0 0
271 91 2 -1.1794 7.259087374538003 19.37619707455781 1.2378087810435605 0 0 0
272 91 1 0.5897 7.417416014732505 0.2085939629539535 1.413820634843947 0 1 0
273 91 1 0.5897 7.629374546713118 18.9710804867372 2.0218817759759404 0 0 0
274 92 2 -1.1794 8.681647770762865 14.258559086364887 5.049419806498305 0 0 0
275 92 1 0.5897 8.84068795116394 15.08816103282155 5.49975961694852 0 0 0
276 92 1 0.5897 7.729466164269765 14.210669369988642 4.963812601332928 0 0 0
277 93 2 -1.1794 8.938880754433585 19.175087974983626 6.843751953914394 0 0 0
278 93 1 0.5897 8.221310008157856 19.470526598716063 7.404165965715303 0 0 0
279 93 1 0.5897 9.731553859485564 19.39031915735024 7.335173897315021 0 0 0
280 94 2 -1.1794 12.502766003958811 14.171975813678605 5.307979144248333 0 0 0
281 94 1 0.5897 11.995493733242501 14.13764608780124 4.497130953164512 0 0 0
282 94 1 0.5897 12.563428192353635 13.2597720399288 5.591806377867418 0 0 0
283 95 2 -1.1794 7.716446563764138 15.500953121556238 1.770537451450468 0 0 0
284 95 1 0.5897 6.928907331159438 15.663845806454086 1.2515436241652085 0 0 0
285 95 1 0.5897 8.438273389070686 15.603752838195508 1.150353663293466 0 0 0
2 1 1 0.5897 1.8366822060284362 2.2818824754739206 0.48582504087028855 0 0 0
107 36 1 0.5897 17.818719839733674 2.414205876722194 0.21981861998157187 0 0 0
891 297 1 0.5897 3.6610219597516154 18.833814898840664 0.4169868509803275 0 0 1
437 146 1 0.5897 3.9769723458103305 9.134198457417973 10.092383115923061 0 0 0
292 98 2 -1.1794 17.252353159119753 14.802110650032372 3.1053585267989274 0 0 0
293 98 1 0.5897 17.343032330523865 15.755098560047168 3.1028483420409407 0 0 0
294 98 1 0.5897 16.454579946885303 14.638248301833787 3.6083268327329394 0 0 0
295 99 2 -1.1794 19.137630984474793 18.027620270258573 5.739055628869275 0 0 0
296 99 1 0.5897 19.08919292497933 17.353515547136396 6.416843035228358 0 0 0
297 99 1 0.5897 19.844742492198822 17.73785507086474 5.162616774831558 0 0 0
298 100 2 -1.1794 14.648069091562244 17.407911443712266 3.340108665205677 0 0 0
299 100 1 0.5897 14.227022424182646 17.641564700424347 4.167297567439562 0 0 0
300 100 1 0.5897 15.584490524947931 17.51056553086437 3.509921122798167 0 0 0
301 101 2 -1.1794 18.467470311456978 19.321733085597863 1.8032777019125863 0 0 0
302 101 1 0.5897 17.993212109864558 19.36373020464203 0.9730449877730252 0 0 0
303 101 1 0.5897 19.391046484476792 19.31134591618953 1.5518864454278414 0 0 0
304 102 2 -1.1794 17.383367076711185 17.539920248707723 3.6831747196604976 0 0 0
305 102 1 0.5897 17.951585846118043 17.634995303821825 4.447439259230625 0 0 0
306 102 1 0.5897 17.800641947179365 18.07281873879095 3.0063430801468 0 0 0
307 103 2 -1.1794 14.04087288031649 19.233036067877023 1.495415763745117 0 0 0
308 103 1 0.5897 13.10080385061096 19.25345629468162 1.3162577387426169 0 0 0
309 103 1 0.5897 14.145753798582078 18.540557013814983 2.147819108922715 0 0 0
310 104 2 -1.1794 15.166305671256865 14.120025283200867 4.818865873816003 0 0 0
311 104 1 0.5897 14.220144773783236 14.252406789489319 4.878235497674393 0 0 0
312 104 1 0.5897 15.306438008152538 13.235229078621636 5.156214815746221 0 0 0
313 105 2 -1.1794 15.63169393464341 18.640827786074787 6.5437758466692095 0 0 0
314 105 1 0.5897 15.697628562267045 19.29296110368972 5.8462772413182025 0 0 0
315 105 1 0.5897 14.975340136179174 18.996124442210274 7.1431161384837205 0 0 0
316 106 2 -1.1794 19.292056113498486 14.035713431821994 4.937787676738034 0 0 0
317 106 1 0.5897 19.075609255653625 14.694095021408332 5.598031330162489 0 0 0
318 106 1 0.5897 18.63703118956646 14.160248952630463 4.251163063083789 0 0 0
319 107 2 -1.1794 14.375196990802555 15.54304413544825 1.2661259648566392 0 0 0
320 107 1 0.5897 13.450225406514068 15.557496308272492 1.0203419738809112 0 0 0
321 107 1 0.5897 14.412861239210882 16.033179726665338 2.087383056397574 0 0 0
556 186 2 -1.1794 3.867607414255163 17.542701694180693 10.13523628839247 0 0 0
325 109 2 -1.1794 2.707744220342658 2.6168464335340205 7.026430604643825 0 0 0
326 109 1 0.5897 3.6115271188615936 2.460738524616952 7.30032673691973 0 0 0
327 109 1 0.5897 2.6008782317404453 3.566547040279635 7.081652744338329 0 0 0
70 24 2 -1.1794 11.922727235706759 2.3720201986813305 0.13865204021421662 0 0 0
106 36 2 -1.1794 18.736351372949414 2.5866981126151605 0.00884751840169995 0 0 0
449 150 1 0.5897 4.3858980756444526 11.730820391548987 9.307014833181752 0 0 0
337 113 2 -1.1794 4.756073429787128 6.094711269925691 8.39879783028897 0 0 0
338 113 1 0.5897 4.556584187546379 6.8156843323714575 8.996016819467673 0 0 0
339 113 1 0.5897 5.7028628583229715 6.14658826071886 8.267737869679802 0 0 0
618 206 1 0.5897 17.555335063278346 15.802775024591217 9.958774978765087 0 0 0
343 115 2 -1.1794 0.4107852489208551 6.1721835671081475 8.868143893391856 0 0 0
344 115 1 0.5897 1.0597006647676843 5.882908331645535 8.226701438783005 0 0 0
345 115 1 0.5897 0.5881805994236547 5.641664643884874 9.644768126023267 0 0 0
355 119 2 -1.1794 0.9370424285653638 2.2139120492612467 9.098211529838823 0 0 0
356 119 1 0.5897 1.6259732981803476 2.238043563060675 8.434131577591941 0 0 0
357 119 1 0.5897 0.13808083349989111 2.44355967222473 8.623821304870164 0 0 0
358 120 2 -1.1794 5.509732533181346 2.4552787708831203 7.238135551590454 0 0 0
359 120 1 0.5897 5.791789210431573 1.7086472586873778 6.7096548301233625 0 0 0
360 120 1 0.5897 6.1145696433383225 2.466342796083766 7.979807093407008 0 0 0
361 121 2 -1.1794 9.254904453592806 2.8823651670598665 6.878370999029751 0 0 0
362 121 1 0.5897 10.194726667908895 2.826630947947975 7.0511551942375075 0 0 0
363 121 1 0.5897 9.106739824158746 3.800419934121788 6.651307987030596 0 0 0
631 211 2 -1.1794 13.83179242757029 19.893540965429978 8.342627867856313 0 0 0
522 174 1 0.5897 17.158548407379413 11.186038582829612 9.877886257580728 0 0 0
373 125 2 -1.1794 11.278047551059364 6.092139320143766 8.501147468311087 0 0 0
374 125 1 0.5897 11.219868448473605 5.273181474449417 8.993274663720719 0 0 0
375 125 1 0.5897 11.225616545837049 6.77714262419966 9.167676598604714 0 0 0
379 127 2 -1.1794 7.444995083474093 6.103695945005011 8.481220443082153 0 0 0
380 127 1 0.5897 7.636096688870646 5.720934720246259 9.337358944073882 0 0 0
381 127 1 0.5897 7.406250181620027 7.046434263452801 8.642931512236117 0 0 0
391 131 2 -1.1794 7.591231744593521 2.2856258632566875 8.949665282487478 0 0 0
392 131 1 0.5897 8.12093239707404 2.48846670001742 8.178673405661396 0 0 0
393 131 1 0.5897 7.638645160335874 1.3328544145895185 9.029535494240246 0 0 0
394 132 2 -1.1794 11.918533101227862 2.8084735100179503 7.296951380832333 0 0 0
395 132 1 0.5897 12.704242003569831 2.698773222258988 7.832427071872937 0 0 0
396 132 1 0.5897 12.097221207652426 3.5838613855570123 6.76486963615989 0 0 0
397 133 2 -1.1794 16.37387370451626 2.7593875094251286 6.671411019738128 0 0 0
398 133 1 0.5897 17.245360193580446 2.6657505328345072 7.056004056156659 0 0 0
399 133 1 0.5897 16.29472134714495 3.6942267661795563 6.481267920016568 0 0 0
145 49 2 -1.1794 9.250832284794182 8.725576561180503 0.03500002510892239 0 0 0
401 134 1 0.5897 17.238311175495483 0.9624548130699251 9.402944135843807 0 0 0
509 170 1 0.5897 17.20795555001939 8.640038706686243 10.064060626867915 0 0 0
409 137 2 -1.1794 17.800416867611084 6.037108246418237 8.105313067703747 0 0 0
410 137 1 0.5897 18.753993926867754 6.004828460493988 8.182213615352847 0 0 0
411 137 1 0.5897 17.528981105730193 6.685316995296169 8.755233562243376 0 0 0
178 60 2 -1.1794 12.10295780184367 8.825192501417972 0.3715442986666191 0 0 0
544 182 2 -1.1794 3.929362586079712 14.822372951104095 10.013687881785232 0 0 0
415 139 2 -1.1794 14.188370216144685 6.149652494668036 8.571300782839934 0 0 0
416 139 1 0.5897 14.700648835129932 5.76743504501758 7.858784313202664 0 0 0
417 139 1 0.5897 13.285758645048167 5.8928102436116605 8.38263548879757 0 0 0
427 143 2 -1.1794 14.448759675001629 2.483225312813426 8.73610266030444 0 0 0
428 143 1 0.5897 14.723805709448426 2.8939238939008507 9.555705476967901 0 0 0
429 143 1 0.5897 15.161895103359557 2.6669538492450986 8.124612630050617 0 0 0
430 144 2 -1.1794 18.984165939923948 2.602083283956679 7.366968878865144 0 0 0
431 144 1 0.5897 19.23699540574163 1.828274636591878 6.863362670793883 0 0 0
432 144 1 0.5897 19.38964696628018 3.334107144842133 6.9021910676419616 0 0 0
433 145 2 -1.1794 2.677126086409513 9.604356939259835 6.966315508960597 0 0 0
434 145 1 0.5897 3.617477284779992 9.492204637955917 7.105636149021583 0 0 0
435 145 1 0.5897 2.4469215863890574 8.929126191309939 6.328118466194657 0 0 0
644 215 1 0.5897 12.993276168669528 15.849774718759098 8.615262738817789 0 0 0
39 13 1 0.5897 10.062461050616667 2.3524914236135728 0.11110405480826713 0 0 0
627 209 1 0.5897 17.131096413983943 19.256225261649575 7.66359101944003 0 0 0
746 249 1 0.5897 16.688480208426412 5.370837518913327 0.26226479005415215 0 0 1
445 149 2 -1.1794 4.829299588273009 12.993602343084028 8.183308481287234 0 0 0
446 149 1 0.5897 4.544684742043117 13.73336399701078 8.720009207234588 0 0 0
447 149 1 0.5897 5.712687572208622 12.79677269110894 8.494885258282842 0 0 0
617 206 1 0.5897 17.409536679720954 14.413678490324147 9.374492474775561 0 0 0
451 151 2 -1.1794 0.2273608976904487 12.856577824569667 8.574678229694573 0 0 0
452 151 1 0.5897 0.45808607066279483 13.769978849380221 8.744579519796595 0 0 0
453 151 1 0.5897 0.8774784745562337 12.55923850923862 7.938151335045458 0 0 0
463 155 2 -1.1794 0.7964533395209143 8.869119363131608 9.093282404291678 0 0 0
464 155 1 0.5897 0.7417339445127964 7.913840926682662 9.122643446585736 0 0 0