LAMMPS data file via write_data, version 30 Jul 2021, timestep = 16750000

864 atoms
2 atom types
576 bonds
1 bond types
288 angles
1 angle types

0.05187487392445256 18.1556975260834 xlo xhi
0.12861272933833945 23.500565070673225 ylo yhi
0.16855955834539138 22.044636241657514 zlo zhi

Masses

1 1.00794
2 15.9994

Atoms # full

707 1 1 0.5897 3.0276003117928587 1.8358734593290453 4.125343662189754 0 0 0
706 1 2 -1.1794 3.004972018334511 1.809918262860559 3.1686808231386325 0 0 0
30 1 1 0.5897 5.060654669149434 4.164460148407059 2.6755534745114677 0 0 0
708 1 1 0.5897 2.1187519968514645 2.091595189237987 2.941844127611984 0 0 0
29 1 1 0.5897 4.433420322278105 2.793281083361253 2.5398930184263135 0 0 0
28 1 2 -1.1794 5.064617200296525 3.381329110797225 2.125109530613946 0 0 0
3 1 1 0.5897 0.5511751881876903 4.242165258444492 2.6013869922041835 0 0 0
595 1 2 -1.1794 0.5247964513239389 5.929996357503598 3.2013186295592724 0 0 0
495 1 1 0.5897 8.204791843101514 2.6706700884600676 3.001020390495218 0 0 0
494 1 1 0.5897 6.71214545528617 2.706074361204233 2.7510790109386853 0 0 0
493 1 2 -1.1794 7.394808340193435 2.1955782447004446 3.186504217130256 0 0 0
846 1 1 0.5897 7.3037289968249475 1.7977158483399838 4.9250641838270655 0 0 0
1 1 2 -1.1794 0.5721160033120889 3.3021232870655233 2.422086599185994 0 0 0
136 1 2 -1.1794 5.305458521920788 5.765008458363308 3.3847354884498433 0 0 0
20 1 1 0.5897 0.2887955610337428 3.4048321436788247 0.5433021458681132 0 0 0
668 1 1 0.5897 5.006954787734544 3.432809778493128 0.26501776991296716 0 0 0
137 1 1 0.5897 5.229353538075441 5.787264998367021 4.338718332881645 0 0 0
819 1 1 0.5897 7.117680683872591 0.5504317485378465 2.4936813723163396 0 0 0
686 1 1 0.5897 5.257653648055954 5.0162791781694525 6.658464497383463 0 0 0
845 1 1 0.5897 7.306404875344842 0.8058653232127354 6.068912737580603 0 0 0
82 1 2 -1.1794 5.2073472007914745 3.284178193536326 6.964727659201067 0 0 0
183 1 1 0.5897 0.3700976901065706 5.271031710559659 6.1413963815938795 0 0 0
674 1 1 0.5897 3.75088784861835 1.9433555754374978 9.785571299570655 0 0 0
356 1 1 0.5897 7.7770001522213175 0.8436882028770947 10.213818754700648 0 0 0
489 1 1 0.5897 2.910301862240903 1.3464084446420244 6.295436045487433 0 0 0
673 1 2 -1.1794 3.031406334126209 1.4604269257981055 10.192216337263789 0 0 0
784 1 2 -1.1794 0.6744112207362227 3.5831469372023883 6.753579988627152 0 0 0
83 1 1 0.5897 4.403273282758876 2.9986044690902305 6.530958980625854 0 0 0
84 1 1 0.5897 5.874935453555415 2.6686697053704886 6.661907888237031 0 0 0
274 1 2 -1.1794 5.19562188582887 3.132346341839289 9.652362370877107 0 0 0
678 1 1 0.5897 4.960668874850329 4.862340454977784 10.179194667384767 0 0 0
785 1 1 0.5897 0.7745811898016283 3.331517060122857 7.671755732056378 0 0 0
36 1 1 0.5897 1.6989621772990433 2.471362247737719 9.778866841527451 0 0 0
355 1 2 -1.1794 7.684871753206135 1.795832813800432 10.248287662113801 0 0 0
34 1 2 -1.1794 0.9024776298997813 2.9171868851251976 9.490685836936128 0 0 0
844 1 2 -1.1794 7.215597602310283 1.739151332534022 5.876470895389442 0 0 0
276 1 1 0.5897 6.001377295584978 2.6939845368486433 9.925861415951625 0 0 0
675 1 1 0.5897 3.12719368121916 0.5661492261356473 9.864561548810073 0 0 0
275 1 1 0.5897 5.286629848255204 3.2325298327590293 8.704701203718553 0 0 0
488 1 1 0.5897 2.2125601583886905 2.638390671322387 5.926854187087293 0 0 0
112 1 2 -1.1794 0.8186579401487911 5.491539417302964 10.346690900537006 0 0 0
35 1 1 0.5897 0.9395112518663147 3.7737512480488977 9.916378300236138 0 0 0
676 1 2 -1.1794 5.014594952287021 5.795468113834893 10.385657097794644 0 0 0
487 1 2 -1.1794 3.020760126685492 2.146523541705999 5.781723621066306 0 0 0
419 1 1 0.5897 8.947972074530165 2.638357877711979 6.520532178003762 0 0 0
685 1 2 -1.1794 5.289021849980803 5.913149873162072 6.325407087476842 0 0 0
166 1 2 -1.1794 3.129895003486539 1.719012251604016 13.00740026798095 0 0 0
167 1 1 0.5897 3.026318930330931 1.6643877264011797 12.057316085158835 0 0 0
457 1 2 -1.1794 5.321573441792352 2.8971775495776892 14.142305835393763 0 0 0
458 1 1 0.5897 6.1026777124155025 2.6397421007488115 13.652587263502843 0 0 0
459 1 1 0.5897 4.609898529721223 2.4024134598132965 13.736174804282264 0 0 0
762 1 1 0.5897 5.317402184194101 4.90941259591745 13.577988909939831 0 0 0
594 1 1 0.5897 8.373656894570772 2.404157490731659 13.282696906013806 0 0 0
168 1 1 0.5897 2.368873482370409 2.2183894852300448 13.303497681024654 0 0 0
468 1 1 0.5897 1.0638658595596129 3.3066867248379177 14.92889110120085 0 0 0
365 1 1 0.5897 0.8376350169249247 4.6638006405252215 13.466536486173144 0 0 0
593 1 1 0.5897 7.514761494441246 1.157724696374569 13.258611248619982 0 0 0
592 1 2 -1.1794 7.554018785195114 2.056404863600653 12.931333103431655 0 0 0
466 1 2 -1.1794 1.0746493239909574 3.0228828624356967 14.01470293250119 0 0 0
71 1 1 0.5897 5.127241780608803 3.0648766104740344 15.997172649761568 0 0 0
364 1 2 -1.1794 0.7035494104140547 5.54576212953516 13.119497387810188 0 0 0
357 1 1 0.5897 7.649611113313853 1.9998543386643308 11.182898815596586 0 0 0
761 1 1 0.5897 5.135791768629293 5.661992172574054 12.276908605068009 0 0 0
113 1 1 0.5897 0.7370953735522907 5.575901821111207 11.296745235075756 0 0 0
467 1 1 0.5897 0.15475536055074912 2.867019248603092 13.800900446508088 0 0 0
760 1 2 -1.1794 5.3397630010127495 5.7900077308861375 13.203391028403283 0 0 0
754 1 2 -1.1794 7.2253302564463215 1.803757239760457 17.859731944844313 0 0 0
70 1 2 -1.1794 5.06881507713312 3.0925227421754875 16.95226276570078 0 0 0
81 1 1 0.5897 2.5526215703116657 0.6429417860739978 20.89605750855577 0 1 0
755 1 1 0.5897 7.289888270016816 2.058001904062223 18.78035845888597 0 0 0
290 1 1 0.5897 2.642565003764961 1.1961830337317352 17.195103745087046 0 0 0
42 1 1 0.5897 7.481273631990217 1.19977680537736 20.898283480412417 0 0 0
289 1 2 -1.1794 2.5562100983779588 1.9684980885103458 17.754010865631187 0 0 0
41 1 1 0.5897 6.557623735834317 2.3991840155220228 20.910178152720178 0 0 0
143 1 1 0.5897 4.934211273194422 5.1222944352331545 20.745828251463422 0 0 0
569 1 1 0.5897 1.5631559099549575 2.712784139940514 20.84396906589707 0 0 0
360 1 1 0.5897 8.74242545142314 3.2167593360134368 21.348485200323843 0 0 0
570 1 1 0.5897 2.3217123407586353 2.3168257136177393 19.59501333140789 0 0 0
40 1 2 -1.1794 7.43602273126729 2.1228457481057186 20.648965785523828 0 0 0
134 1 1 0.5897 0.7660439770403762 4.59710617095126 17.016769655459967 0 0 0
667 1 2 -1.1794 5.032513083763698 3.3488133590681866 21.18784918355218 0 0 0
646 1 2 -1.1794 0.07724044726344244 5.907708942145889 20.563321848208183 0 0 0
568 1 2 -1.1794 2.41751767173853 2.4029261065944683 20.543578852514194 0 0 0
133 1 2 -1.1794 0.76266018164356 3.695242968659421 16.695987261790783 0 0 0
669 1 1 0.5897 4.16104725478992 3.031209564797491 20.951430989257105 0 0 0
278 1 1 0.5897 4.99080053649844 4.765930637053342 17.419083474384486 0 0 0
291 1 1 0.5897 1.892460508816854 2.505173504813066 17.320821493847703 0 0 0
756 1 1 0.5897 6.412839191500485 2.208086436047863 17.555486714079365 0 0 0
72 1 1 0.5897 4.163192853363333 2.8493981488754576 17.14445334912289 0 0 0
599 1 1 0.5897 8.914500984511697 2.4317003908655956 16.889503214738284 0 0 0
648 1 1 0.5897 0.12559630684049153 5.808838859728754 19.612395936241633 0 0 0
711 1 1 0.5897 8.656527236726811 5.885829420105681 17.200339851368447 0 0 0
277 1 2 -1.1794 5.057624920660298 5.695505139926998 17.637452499186196 0 0 0
253 1 2 -1.1794 2.932984933395444 7.0087640133286895 2.4278088443956096 0 0 0
123 1 1 0.5897 2.7410107546959614 8.965664130227493 2.410557861409072 0 0 0
121 1 2 -1.1794 2.811726481150622 9.823932532856801 2.828470397272615 0 0 0
122 1 1 0.5897 2.71816507419609 9.64383744012486 3.7639826223294297 0 0 0
44 1 1 0.5897 1.4560467505691366 10.921734541540243 2.3980758214913185 0 0 0
218 1 1 0.5897 5.780101576904866 10.384056970301046 2.4110129528483237 0 0 0
255 1 1 0.5897 2.099238911774615 6.6376501509220995 2.7164836754544996 0 0 0
219 1 1 0.5897 4.273262719798496 10.522191969471786 2.4562804700472562 0 0 0
417 1 1 0.5897 8.261403795096705 6.4628116860049385 2.510554493509621 0 0 0
415 1 2 -1.1794 7.496332999070477 6.963268903283343 2.226995248798683 0 0 0
138 1 1 0.5897 4.48287145049321 6.139431316831398 3.0695309584663155 0 0 0
254 1 1 0.5897 2.894821377334652 6.970165433496875 1.4720731440146475 0 0 0
217 1 2 -1.1794 5.059834813687305 10.927123819131655 2.0908538539621633 0 0 0
66 1 1 0.5897 7.636951972569639 9.567964062492218 3.8465862606069674 0 0 0
65 1 1 0.5897 7.351004452539485 8.582575424109157 2.733329692262748 0 0 0
64 1 2 -1.1794 7.389072013722196 9.519992977616834 2.9232175412729227 0 0 0
43 1 2 -1.1794 0.565401671534278 11.231721318450857 2.234290574042131 0 0 0
416 1 1 0.5897 6.747721269237942 6.442913893710685 2.5185903651977455 0 0 0
396 1 1 0.5897 0.6190575449983273 11.346574725140837 0.2532986476134429 0 0 0
773 1 1 0.5897 8.987634934673832 10.329977917896038 2.425351591183087 0 0 0
162 1 1 0.5897 7.496002987414678 6.7669132519667095 0.34607768212041073 0 0 1
363 1 1 0.5897 5.112264330512053 10.60521331708793 0.17829698926428464 0 0 1
712 1 2 -1.1794 7.767647762153168 9.519411280132712 5.626934150519518 0 0 0
597 1 1 0.5897 0.5405540495872623 6.0684667622873345 4.1483941748156905 0 0 0
793 1 2 -1.1794 2.832939423510641 9.516208058249804 5.481156862873106 0 0 0
550 1 2 -1.1794 0.7401442969314831 10.697432652624443 6.883612407612174 0 0 0
12 1 1 0.5897 2.9823257230253373 7.930357646881177 6.435449551242226 0 0 0
10 1 2 -1.1794 2.8695136110640873 7.0427053094570065 6.7754700959177 0 0 0
687 1 1 0.5897 4.487026204538514 6.319351000410227 6.654043418234993 0 0 0
526 1 2 -1.1794 7.492390450004103 6.687156477469975 9.616460058313804 0 0 0
577 1 2 -1.1794 5.30941439518478 10.370171478058392 6.450855552223565 0 0 0
145 1 2 -1.1794 7.699080138767518 6.929968367586619 6.911505533486291 0 0 0
14 1 1 0.5897 0.7361519455848384 11.788489002419789 9.872388270750806 0 0 0
13 1 2 -1.1794 0.7394038142914591 10.866065274999793 9.616685537719512 0 0 0
580 1 2 -1.1794 5.3046594565820975 11.04561760631393 9.116964622418152 0 0 0
650 1 1 0.5897 2.8830386430217643 7.347549723497308 8.593243818137225 0 0 0
822 1 1 0.5897 8.301604237822621 9.671011936377827 9.835342174831375 0 0 0
527 1 1 0.5897 7.517683889590946 7.630830976802919 9.77494183091276 0 0 0
15 1 1 0.5897 1.5852085507810305 10.53600238366782 9.919763320346092 0 0 0
582 1 1 0.5897 5.37069854700976 10.75657697321049 8.206754425000717 0 0 0
820 1 2 -1.1794 7.469379957395781 9.362098685928421 10.19334349605127 0 0 0
581 1 1 0.5897 5.953848357741151 10.519307696992092 9.58364702956107 0 0 0
147 1 1 0.5897 7.73411880463789 6.809016486716192 7.860464544085421 0 0 0
649 1 2 -1.1794 2.859355850769847 7.3270095104584625 9.550012408782928 0 0 0
551 1 1 0.5897 0.7790379727401873 10.76124279091344 7.837969622347172 0 0 0
256 1 2 -1.1794 3.188924729324599 9.908873594906492 10.450999450232139 0 0 0
258 1 1 0.5897 3.95108218220177 10.252650774725076 9.985003505451585 0 0 0
146 1 1 0.5897 6.838717166963438 6.595336702294511 6.658521265814456 0 0 0
257 1 1 0.5897 3.0883793191786175 9.016053080377693 10.120801889437663 0 0 0
528 1 1 0.5897 8.37273438463153 6.383061708124845 9.837135644081943 0 0 0
578 1 1 0.5897 6.047272493699561 10.081246836963452 5.913903078211241 0 0 0
794 1 1 0.5897 2.1257380602432043 9.916728310262174 5.9868155415801425 0 0 0
11 1 1 0.5897 1.9508976361960362 6.835174955139682 6.604466092040155 0 0 0
677 1 1 0.5897 5.90353494010343 6.045903209122322 10.134151255082894 0 0 0
713 1 1 0.5897 8.441824140438495 9.960801627283667 6.14356952443356 0 0 0
651 1 1 0.5897 3.642545567562862 6.836255532864605 9.799027448455224 0 0 0
795 1 1 0.5897 3.6225739927331837 9.974804374254536 5.768146876329935 0 0 0
714 1 1 0.5897 7.6869007320529805 8.653711308543372 6.027328497514152 0 0 0
579 1 1 0.5897 5.266318961906922 11.31605176508805 6.310473410840334 0 0 0
552 1 1 0.5897 0.9970912735138865 11.566111517855926 6.574308743331672 0 0 0
114 1 1 0.5897 1.602225346268097 5.995637778026788 10.127376133143823 0 0 0
181 1 2 -1.1794 0.2616785824174851 6.192324116664277 5.905338190897396 0 0 0
826 1 2 -1.1794 7.581747511550716 7.243549680192943 13.930829060583209 0 0 0
827 1 1 0.5897 6.796112052487658 6.77824808328527 13.643653175331124 0 0 0
332 1 1 0.5897 2.931902248158537 7.8824349401541225 13.669105314128522 0 0 0
797 1 1 0.5897 2.904154254502782 9.87998520642065 12.215321928157007 0 0 0
796 1 2 -1.1794 2.8796284535349543 9.64820340098455 13.143782497860713 0 0 0
798 1 1 0.5897 2.105514752543753 10.097538238042041 13.482969331885739 0 0 0
722 1 1 0.5897 4.365567437824719 10.519420722903078 13.743262094823296 0 0 0
261 1 1 0.5897 0.7007670978899535 11.219790352383566 15.05313940434464 0 0 0
723 1 1 0.5897 5.3383142355219375 10.754266876228188 14.879338424105276 0 0 0
828 1 1 0.5897 7.592760566317377 7.131991627873116 14.881516904742726 0 0 0
259 1 2 -1.1794 0.8622558969367581 11.21217487800547 14.109620401662164 0 0 0
331 1 2 -1.1794 2.9238857685951842 6.977395852136288 13.980734522737967 0 0 0
225 1 1 0.5897 2.9237203122936504 7.097956606961834 15.802050233524701 0 0 0
721 1 2 -1.1794 5.236871077872711 10.866701993935132 13.934116585386972 0 0 0
475 1 2 -1.1794 7.454486557488486 9.704083589433194 12.896405742918382 0 0 0
476 1 1 0.5897 6.7048219162521985 10.149759450895466 13.290860825486256 0 0 0
477 1 1 0.5897 7.443328641087542 8.828237731843709 13.282474528523792 0 0 0
333 1 1 0.5897 3.7648400802630824 6.618596600204708 13.697464119228103 0 0 0
366 1 1 0.5897 1.4254952791022992 6.058822941413958 13.482510505205617 0 0 0
821 1 1 0.5897 7.549369455010868 9.497171491660508 11.137665998708144 0 0 0
260 1 1 0.5897 0.08109331474394565 10.80452709732807 13.735677642111835 0 0 0
104 1 1 0.5897 8.982444598434826 10.612462766877664 13.542503132112557 0 0 0
851 1 1 0.5897 8.988148140271123 6.398131200597275 13.464281764599981 0 0 0
224 1 1 0.5897 3.1405921177420404 8.046082896708034 16.962292340794747 0 0 0
141 1 1 0.5897 7.545860599778993 8.52301422033545 20.81112407732533 0 0 0
681 1 1 0.5897 5.569112554301338 11.719570406331012 16.899728116949746 0 0 0
223 1 2 -1.1794 3.0167571896112095 7.119927590968826 16.754544558070336 0 0 0
4 1 2 -1.1794 2.46932832726654 7.133420601027036 21.283712329117243 0 0 0
627 1 1 0.5897 2.419694412616122 10.25868209588422 17.176386707246692 0 0 0
5 1 1 0.5897 3.3326195512183574 6.777590244897778 21.073257881712443 0 0 0
9 1 1 0.5897 6.840374629062084 9.82185562861411 17.209440895703068 0 0 0
140 1 1 0.5897 6.823775028278791 9.85358973697243 20.818300476044094 0 0 0
522 1 1 0.5897 7.390187015265976 7.625902389839511 17.08309166031019 0 0 0
690 1 1 0.5897 1.953015818302383 10.405728326019744 20.539744690267277 0 0 0
625 1 2 -1.1794 3.1851228025270757 9.75329657468564 17.450068070956 0 0 0
688 1 2 -1.1794 2.6286336198228013 9.807370019972993 20.22079135948635 0 0 0
680 1 1 0.5897 4.783715845913938 10.429495853782672 17.003526775736063 0 0 0
679 1 2 -1.1794 5.56748849454092 10.808590512197876 16.60577842047848 0 0 0
689 1 1 0.5897 3.4249784845134292 10.079719282646629 20.67671718021313 0 0 0
394 1 2 -1.1794 0.599022609235061 11.532016640278645 21.19045189827235 0 0 0
626 1 1 0.5897 3.145064556828972 9.75593759593454 18.406501950648924 0 0 0
139 1 2 -1.1794 7.630948396634657 9.432005529042586 20.52344905615748 0 0 0
6 1 1 0.5897 2.4722778963112413 8.011528024981473 20.902659533265762 0 0 0
462 1 1 0.5897 8.912334129935495 6.374013152414006 20.385580992435976 0 0 0
8 1 1 0.5897 7.406743061314628 9.453686019421701 18.56440302422849 0 0 0
7 1 2 -1.1794 7.5541438755226045 9.338507751624142 17.62557634042738 0 0 0
160 1 2 -1.1794 7.38997190801306 6.892005381855593 21.27903339326656 0 0 0
161 1 1 0.5897 6.519360278050426 6.543607114538804 21.087117925642865 0 0 0
521 1 1 0.5897 6.479352002188426 6.419482682864076 17.000572696617873 0 0 0
361 1 2 -1.1794 5.102521375151002 10.655758150715377 21.0984819577016 0 0 0
287 1 1 0.5897 9.081216071430058 10.348345882839332 20.92017461570662 0 0 0
279 1 1 0.5897 4.252074060887175 6.081363824242997 17.29335359150563 0 0 0
520 1 2 -1.1794 7.303759190481511 6.769958194192331 16.66335767111631 0 0 0
647 1 1 0.5897 0.937647014867089 6.244145160267519 20.813705445169674 0 0 0
572 1 1 0.5897 1.2932075077514538 6.538257519236706 17.482105603020713 0 0 0
362 1 1 0.5897 5.150896726961683 11.592417347971734 20.907158931777538 0 0 0
246 1 1 0.5897 8.937917491323379 10.21075542675172 17.143891384973934 0 0 0
446 1 1 0.5897 0.9595972771380687 11.71346251856075 17.215070806512642 0 0 0
144 1 1 0.5897 4.8760447148945465 6.0380782176744745 19.54161908879233 0 0 0
142 1 2 -1.1794 4.863013901416285 6.0443429226688625 20.498787233056945 0 0 0
571 1 2 -1.1794 0.5429484249375167 6.1039914365973305 17.887987390494196 0 0 0
445 1 2 -1.1794 0.7417825992161202 10.868529685455414 16.82148239506556 0 0 0
200 1 1 0.5897 5.1260000955910066 13.185586233520537 5.178270209807827 0 0 0
173 1 1 0.5897 4.340791394662321 13.64620975927497 2.975950987897816 0 0 0
172 1 2 -1.1794 5.065644053385821 13.216188752665744 3.429701726258316 0 0 0
374 1 1 0.5897 0.6963533490070556 13.613563103946946 4.132505428363674 0 0 0
558 1 1 0.5897 3.182256986210723 14.54004729706309 1.1638843541860182 0 0 0
556 1 2 -1.1794 3.159741085496801 14.596704431587504 2.1192137678907463 0 0 0
557 1 1 0.5897 2.264533962785779 14.351643858882627 2.3531365976284415 0 0 0
478 1 2 -1.1794 7.229773593723302 14.418522142398212 2.161161548450326 0 0 0
174 1 1 0.5897 5.138732687596494 12.360072218651192 3.007804401836751 0 0 0
293 1 1 0.5897 2.9505587913171074 16.279117377612287 2.649510442891499 0 0 0
479 1 1 0.5897 8.048568381284154 14.093235104094894 2.5352908998571246 0 0 0
449 1 1 0.5897 7.202027330216516 16.222431276784313 2.6509673221685333 0 0 0
480 1 1 0.5897 6.545005593006395 13.951964534604373 2.640377089778323 0 0 0
373 1 2 -1.1794 0.7849169762777426 13.655538647076868 3.180255287929096 0 0 0
448 1 2 -1.1794 7.500708471197448 17.13181924746057 2.6420784633710754 0 0 0
308 1 1 0.5897 7.651974109086851 17.22981282398108 4.563026304691154 0 0 0
292 1 2 -1.1794 2.944642351972105 17.18095713198099 2.9703599415304147 0 0 0
45 1 1 0.5897 0.5312812248337797 12.09380097952337 2.648935993307941 0 0 0
450 1 1 0.5897 6.741253120639774 17.630942591171465 2.3415640357428225 0 0 0
317 1 1 0.5897 7.517048920889358 14.588166753292084 0.42129850711240924 0 0 0
294 1 1 0.5897 3.000127649742856 17.09739701472473 3.922367895102038 0 0 0
307 1 2 -1.1794 7.600256264067293 17.296248776616412 5.516594426708697 0 0 0
384 1 1 0.5897 2.92924067333491 16.830128539487305 10.153370056519806 0 0 0
201 1 1 0.5897 5.904620891739202 13.777673693706102 6.333804896068694 0 0 0
454 1 2 -1.1794 5.013878343341411 13.63092093363363 10.279487968362556 0 0 0
238 1 2 -1.1794 2.940703649433338 17.394848169868304 5.706007417937 0 0 0
811 1 2 -1.1794 2.88016399799441 15.18130471122963 9.527336376950837 0 0 0
456 1 1 0.5897 5.062549103579597 12.769086374439999 9.865773504117104 0 0 0
813 1 1 0.5897 2.0615353673140584 14.688309277273461 9.472745976461463 0 0 0
17 1 1 0.5897 2.937608969546797 15.036395525218976 7.683981542155887 0 0 0
185 1 1 0.5897 8.260413768696264 17.536934705868298 10.161574084954365 0 0 0
656 1 1 0.5897 1.4204143909245803 13.783783662372675 6.371871810283841 0 0 0
377 1 1 0.5897 6.720197764614721 14.291791040355482 9.837917413116262 0 0 0
239 1 1 0.5897 2.9462937457370435 16.53181428846706 6.120035895555841 0 0 0
519 1 1 0.5897 8.330940867933709 14.453418825336616 6.546007140237052 0 0 0
812 1 1 0.5897 3.5184265566241257 14.550445759593975 9.860293018129337 0 0 0
18 1 1 0.5897 3.6096459289178418 14.368822751260602 6.502964615596866 0 0 0
376 1 2 -1.1794 7.576506316294242 14.636411150891746 9.584623986640594 0 0 0
16 1 2 -1.1794 2.829115749860301 14.865568139077839 6.748345802476172 0 0 0
517 1 2 -1.1794 7.4937326682828855 14.865650302502827 6.758963583261972 0 0 0
186 1 1 0.5897 7.542659210316157 16.205884367606195 10.232501449912895 0 0 0
378 1 1 0.5897 7.4909449506626995 14.82949696342084 8.650928432969687 0 0 0
518 1 1 0.5897 7.514575198935025 15.703808971976033 6.297080628201118 0 0 0
766 1 2 -1.1794 0.6840229712324263 13.510774310004026 10.072488942393658 0 0 0
655 1 2 -1.1794 0.6496941587684495 13.374326436470264 5.978752176903925 0 0 0
59 1 1 0.5897 9.036297458437103 13.68192095704031 10.004515185259917 0 0 0
199 1 2 -1.1794 5.181274340958372 13.18351062989674 6.133947752008111 0 0 0
184 1 2 -1.1794 7.457016982926508 17.12627374515102 10.48111661301999 0 0 0
767 1 1 0.5897 0.7065056139168078 13.59879935027912 11.025440171429535 0 0 0
296 1 1 0.5897 7.481756074382007 14.428158421160042 14.873660322825229 0 0 0
232 1 2 -1.1794 3.0023026494491964 14.919287424370912 13.975001635653614 0 0 0
234 1 1 0.5897 2.9927466317222366 14.755498075233684 14.918113135784804 0 0 0
606 1 1 0.5897 2.96463838341729 16.626122222828656 13.169847336422757 0 0 0
427 1 2 -1.1794 5.117665481881639 13.497552301030558 13.061084922955436 0 0 0
233 1 1 0.5897 3.771397195663266 14.4464120537135 13.65705738166006 0 0 0
639 1 1 0.5897 1.5193239987990141 14.029138082605824 13.206028325277277 0 0 0
429 1 1 0.5897 6.015045767677137 13.766504468300106 13.257404596210757 0 0 0
428 1 1 0.5897 5.056846959342889 12.602565901048013 13.395108825582101 0 0 0
637 1 2 -1.1794 0.6924409548955366 13.7129990185111 12.84195876213108 0 0 0
638 1 1 0.5897 0.5507668591899438 12.867243561842294 13.267284768890164 0 0 0
295 1 2 -1.1794 7.55003731819659 14.439685716007316 13.918879427890356 0 0 0
270 1 1 0.5897 7.628920183169953 16.429899606454068 13.557807181839886 0 0 0
297 1 1 0.5897 8.407655049171419 14.05646716489123 13.734971798281698 0 0 0
269 1 1 0.5897 7.619367216915947 17.37595062248093 12.37583957033837 0 0 0
268 1 2 -1.1794 7.5780522387431875 17.35872751290154 13.332067523345666 0 0 0
604 1 2 -1.1794 2.9664427939917872 17.571826383243412 13.021849020596937 0 0 0
455 1 1 0.5897 5.017909265217894 13.446819723841097 11.21888268463924 0 0 0
316 1 2 -1.1794 7.483801690469973 14.609762127717174 21.340915856083136 0 0 0
54 1 1 0.5897 0.231380520171529 13.895054093356244 17.199610381158273 0 0 0
52 1 2 -1.1794 0.968799701818022 13.463616256507999 17.631230183862648 0 0 0
53 1 1 0.5897 0.8171204140378339 13.606462189646846 18.56555056515387 0 0 0
51 1 1 0.5897 7.982675175209676 14.01869864846019 17.0027675504407 0 0 0
452 1 1 0.5897 0.7019981011754457 13.079239237366274 20.696624308009007 0 0 0
125 1 1 0.5897 5.189160077384228 13.372286266243998 18.696849477230195 0 0 0
124 1 2 -1.1794 5.051642418825678 13.233068840710258 17.759794618461733 0 0 0
684 1 1 0.5897 4.4838205110413645 13.847387880868185 20.7265448966221 0 0 0
157 1 2 -1.1794 7.186209077312454 17.076783598414597 20.199992968386624 0 0 0
666 1 1 0.5897 3.1180300899979327 16.050030426753253 21.048736735830097 0 0 0
610 1 2 -1.1794 7.406899694760914 17.177266088604572 17.38449788270811 0 0 0
664 1 2 -1.1794 3.135100490106034 15.109869347208862 21.227796997114716 0 0 0
318 1 1 0.5897 7.448372759541196 15.541170178626734 21.12295680930285 0 0 0
665 1 1 0.5897 2.321491110581547 14.778395481882537 20.847844877654552 0 0 0
584 1 1 0.5897 3.0040810197723196 16.655356237244384 17.41193735225574 0 0 0
683 1 1 0.5897 5.982081371439578 13.704709572049767 20.889541301421552 0 0 0
126 1 1 0.5897 5.819868466452164 13.624132946368047 17.343735777098345 0 0 0
682 1 2 -1.1794 5.225878102036919 13.30453051860058 20.460315017424577 0 0 0
117 1 1 0.5897 8.93876703590942 13.867643203594206 20.639185910953998 0 0 0
50 1 1 0.5897 7.219463629763104 15.317451127525688 16.852282500511194 0 0 0
159 1 1 0.5897 7.25718856621904 17.136137797812303 19.247200476787505 0 0 0
451 1 2 -1.1794 0.7762073630740851 13.980506230285016 20.38281046247475 0 0 0
824 1 1 0.5897 3.8154016128020967 14.44288401204288 17.15523501203679 0 0 0
825 1 1 0.5897 2.30716680925114 14.528280332187313 17.057048678117887 0 0 0
823 1 2 -1.1794 3.1115086712053963 14.90066010308208 16.695668812589965 0 0 0
583 1 2 -1.1794 2.9566483150742493 17.546126203901167 17.759147687608696 0 0 0
49 1 2 -1.1794 7.176495844168671 14.385175779322159 16.639493818272562 0 0 0
267 1 1 0.5897 5.844757018531525 21.732543751562417 2.4369558079609233 0 0 0
696 1 1 0.5897 1.2303514431632323 21.849706827179205 2.633050938053693 0 0 0
266 1 1 0.5897 4.33498121611791 21.624743316266056 2.4109741100483193 0 0 0
265 1 2 -1.1794 5.118176123920085 21.200937051510643 2.7620454608781038 0 0 0
344 1 1 0.5897 1.4916558975121492 18.345451736197365 2.703738888744928 0 0 0
228 1 1 0.5897 4.957906758457976 19.516524496884834 2.324561847030879 0 0 0
227 1 1 0.5897 4.389686441069423 18.116261313624324 2.415715500078798 0 0 0
817 1 2 -1.1794 7.1262120538352685 23.088642705233422 2.023471365851064 0 0 0
694 1 2 -1.1794 0.513306384235914 21.48120248832384 3.149082335475302 0 0 0
226 1 2 -1.1794 5.1380807292605475 18.609025371816337 2.0791216884186863 0 0 0
187 1 2 -1.1794 2.7545317365537616 22.52599674491154 1.936945238334112 0 0 0
249 1 1 0.5897 5.178800364959543 21.340709382748027 4.609278912739864 0 0 0
345 1 1 0.5897 0.6398953412339586 18.99147970092463 1.6317187917301568 0 0 0
818 1 1 0.5897 7.924708781073909 22.653113053092625 2.321668398057743 0 0 0
343 1 2 -1.1794 0.6824971215892713 18.84058077461436 2.57607354311633 0 0 0
189 1 1 0.5897 2.666970674991754 22.668270293788613 0.9943603023438864 0 0 0
695 1 1 0.5897 0.4997824380876984 20.553645519935518 2.913044490115371 0 0 0
413 1 1 0.5897 0.8328769813279328 21.28016286615959 5.036384292642232 0 0 0
188 1 1 0.5897 2.9972818596174373 23.38300202723878 2.2875164387241047 0 0 0
247 1 2 -1.1794 5.252758764213238 21.252665600312763 5.5596231396652485 0 0 0
321 1 1 0.5897 9.055533426466889 18.10820553693684 2.410545794271025 0 0 0
602 1 1 0.5897 5.24555583161903 18.622903593839148 0.19667288735214014 0 0 0
498 1 1 0.5897 7.105438117730431 22.776170912468764 0.30488787035952214 0 0 0
555 1 1 0.5897 5.550356246595421 20.244124222437005 9.8160314452886 0 0 0
342 1 1 0.5897 0.7685379856800526 18.7335324048394 7.5032082103180935 0 0 0
87 1 1 0.5897 8.354996535329613 21.92790091724283 9.896528744229729 0 0 0
37 1 2 -1.1794 3.4055374962640914 22.309097616764266 9.110935711679666 0 0 0
86 1 1 0.5897 7.616444753153693 22.40205891268654 8.662918337016825 0 0 0
341 1 1 0.5897 1.4142389160014348 18.17978485448261 6.250792496597453 0 0 0
32 1 1 0.5897 8.283909655606111 22.041840990849916 6.274354652337192 0 0 0
383 1 1 0.5897 3.8611696426119035 18.0190949131886 10.054803505411515 0 0 0
39 1 1 0.5897 4.1099216570573525 21.774899630936645 9.47793680222719 0 0 0
553 1 2 -1.1794 5.452306767581834 21.06470693633297 10.299099420310004 0 0 0
701 1 1 0.5897 3.279038860636809 22.78386842633508 7.5142152951513435 0 0 0
405 1 1 0.5897 0.7238092977557663 19.618082226991472 9.611144782354879 0 0 0
387 1 1 0.5897 5.2258396632333115 19.49553859935246 6.055169577115322 0 0 0
102 1 1 0.5897 5.415926359722658 18.42104209010374 8.20815086505088 0 0 0
700 1 2 -1.1794 2.9674323807556204 22.9282845689126 6.620657153788178 0 0 0
385 1 2 -1.1794 5.270266971969823 18.585939462064236 6.349990218014568 0 0 0
403 1 2 -1.1794 0.588451587109531 18.717387469366262 9.316714071743418 0 0 0
38 1 1 0.5897 2.601586573730226 21.87693331442737 9.399187159262715 0 0 0
240 1 1 0.5897 3.7887167396840904 17.77581899356865 5.933859729389319 0 0 0
248 1 1 0.5897 4.4928284474029505 21.721830277506406 5.90399989591969 0 0 0
33 1 1 0.5897 6.772122123527558 22.100048615808884 6.327352092061153 0 0 0
414 1 1 0.5897 0.8368018986717355 20.313313830835554 6.201440922707778 0 0 0
85 1 2 -1.1794 7.556015894513493 22.375325889733073 9.61790716345425 0 0 0
554 1 1 0.5897 6.246130752062989 21.55931755203992 10.095621768151611 0 0 0
404 1 1 0.5897 1.2830228164159072 18.217703426923194 9.745795742227429 0 0 0
702 1 1 0.5897 2.188823048000583 22.37656272045812 6.545961106900899 0 0 0
31 1 2 -1.1794 7.558152647507502 22.556388900806226 6.627528691484764 0 0 0
100 1 2 -1.1794 5.397787698113577 18.435939024070024 9.165137787929194 0 0 0
101 1 1 0.5897 6.192284496818488 17.971042581283935 9.427510133358368 0 0 0
94 1 2 -1.1794 0.8364343158074954 21.35132734160981 9.97805841443851 0 0 0
340 1 2 -1.1794 0.6509471479115468 18.670581695957367 6.555275558100162 0 0 0
386 1 1 0.5897 6.119257350707556 18.273515765697724 6.037277773440096 0 0 0
95 1 1 0.5897 0.05383194997863683 21.814862114975444 9.67995789572253 1 0 0
96 1 1 0.5897 0.7982149356790955 21.405290600051735 10.93304631473106 0 0 0
412 1 2 -1.1794 0.8148779761677793 21.24728751508178 5.992936848470548 0 0 0
382 1 2 -1.1794 2.9839351572409814 17.76680393124987 10.34289223260322 0 0 0
309 1 1 0.5897 8.43099339852416 17.69549717102265 5.774777302066706 0 0 0
502 1 2 -1.1794 0.5515100519302075 18.456908708178513 14.031153781987415 0 0 0
88 1 2 -1.1794 5.37535178508809 21.408698999463244 13.032285262642274 0 0 0
381 1 1 0.5897 1.5006705454364606 21.743531339777487 13.21930343404898 0 0 0
90 1 1 0.5897 5.327809346510638 20.531240974091343 13.411867250702292 0 0 0
763 1 2 -1.1794 5.248309793331134 18.829283861956597 14.00956369498389 0 0 0
738 1 1 0.5897 3.900497581067315 22.161975458181455 13.413072669274674 0 0 0
89 1 1 0.5897 5.3508720754587955 21.262752816754737 12.086519784297735 0 0 0
764 1 1 0.5897 4.455883978439765 18.411276079509427 13.672601758441544 0 0 0
474 1 1 0.5897 5.232662328121258 18.704547694075675 15.85663785542483 0 0 0
765 1 1 0.5897 5.966509185648046 18.321192387784865 13.632397461082512 0 0 0
380 1 1 0.5897 1.0222653861652415 20.30742994107054 13.24581059494567 0 0 0
736 1 2 -1.1794 3.075127499491607 22.566712297233128 13.679785895682299 0 0 0
787 1 2 -1.1794 7.640337194056967 22.778697976779167 13.815032765583819 0 0 0
379 1 2 -1.1794 0.8079449651664441 21.170279786112335 12.89107818778437 0 0 0
788 1 1 0.5897 7.4802919987947964 22.832836419044703 14.757278097110387 0 0 0
503 1 1 0.5897 1.3657536965361987 18.034690013912048 13.7574134601797 0 0 0