LAMMPS data file via write_data, version 30 Jul 2021, timestep = 5750000

1008 atoms
2 atom types
672 bonds
1 bond types
336 angles
1 angle types

-3.3560644275181577 14.966063427072188 xlo xhi
-0.011498059082464707 22.591497059095666 ylo yhi
-0.15626411771721926 19.386262117711933 zlo zhi
-0.0028271741942548076 -6.611060685023777 0.17926619242172406 xy xz yz

Masses

1 1.008
2 15.999

Pair Coeffs # lj/cut/tip4p/long/omp

1 0 0
2 0.21084 3.1668

Bond Coeffs # harmonic/omp

1 450 0.9572

Angle Coeffs # harmonic/omp

1 55 104.52

Atoms # full

123 41 1 0.5897 -3.7834685326203408 2.881773514099908 2.7026009931413344 1 0 0
86 29 1 0.5897 -3.0186051627381554 1.4573165421395848 4.100884181446733 1 0 0
56 19 1 0.5897 -1.556500872379165 3.766057537365926 2.933218521593167 0 0 0
122 41 1 0.5897 -2.9460016046059656 2.175885051078909 1.6574678407561398 1 0 0
55 19 2 -1.1794 -1.086722483495934 4.416664690654586 3.45499493767761 0 0 0
158 53 1 0.5897 -4.9541362490716905 5.007984588049132 4.633357930231208 1 0 0
121 41 2 -1.1794 -2.956663825342315 2.414030904618867 2.584428234592082 1 0 0
57 19 1 0.5897 -0.20054712794591278 4.420263988998087 3.0930017966088763 0 0 0
482 161 1 0.5897 -1.3682874670526681 0.21572233854632847 0.769890885457421 1 1 0
602 201 1 0.5897 -0.7720629081004633 5.471119138592787 0.3548898949835313 1 0 1
163 55 2 -1.1794 -2.5401753438815757 1.3418853145154794 -0.05737748065064631 1 0 0
19 7 2 -1.1794 0.8747948307462385 2.455688438400249 0.09571743133751037 0 0 0
101 34 1 0.5897 -2.9065210247498183 4.665235618240075 0.12064553707607661 1 0 0
21 7 1 0.5897 0.8469410154768608 2.0234599779807074 0.9492869421279468 0 0 0
33 11 1 0.5897 0.37163641349680887 0.2513533281497325 2.2028864578333724 0 0 0
78 26 1 0.5897 -0.5112496324168987 2.537481468848633 4.319523120848795 0 0 0
124 42 2 -1.1794 -5.262905961450469 3.1150153661328037 7.467942153506878 1 0 0
133 45 2 -1.1794 -2.8212635206217236 3.7920757803064626 6.51468998674293 1 0 0
159 53 1 0.5897 -3.7043009390601362 4.830316857181294 5.468955529240107 1 0 0
134 45 1 0.5897 -2.3920436015780173 3.089161968301427 6.0268758922941394 1 0 0
68 23 1 0.5897 -3.5561195102404413 0.13261856326762586 7.779211175428701 0 0 0
669 223 1 0.5897 -5.461091355298322 1.9741342544370555 8.89577457326853 1 0 0
126 42 1 0.5897 -4.465490422200327 3.6043119392224914 7.265303656336831 1 0 0
69 23 1 0.5897 -3.1532533500557554 1.4020046167420375 8.499161198098967 0 0 0
67 23 2 -1.1794 -2.8262542091826566 0.5383813635180221 8.24706067959486 0 0 0
135 45 1 0.5897 -2.104915057859992 4.253872985254881 6.950361759705204 1 0 0
667 223 2 -1.1794 -5.803197389945526 1.2443013969228813 9.41208141381126 1 0 0
157 53 2 -1.1794 -4.219317163222722 5.493100400160897 5.0088112967460585 1 0 0
87 29 1 0.5897 -3.937668331672727 1.1373861984848403 5.260608362162223 1 0 0
85 29 2 -1.1794 -3.020106805037947 1.1028424844025673 4.98998781702716 1 0 0
97 33 2 -1.1794 -4.141061101042688 5.300913741715514 9.56842683379375 1 0 0
662 221 1 0.5897 -7.7237749029644975 4.318766405363724 14.295777460047432 1 0 0
626 209 1 0.5897 -5.968371994621812 1.979352725261333 12.712425430692175 1 0 0
987 329 1 0.5897 -3.4322501118555016 0.31011383966148076 11.630742295651725 1 1 0
668 223 1 0.5897 -5.957437360077993 1.6162014406978227 10.280455096165957 1 0 0
559 187 2 -1.1794 -4.1914797420042085 4.113556294677349 13.41588264654459 0 0 0
560 187 1 0.5897 -4.794357479202889 3.5492130582623207 12.931840003207542 0 0 0
627 209 1 0.5897 -6.887149542302639 2.9326079718076348 11.97818953755216 1 0 0
625 209 2 -1.1794 -6.001974720242146 2.5686676094071603 11.958928703272443 1 0 0
606 202 1 0.5897 -6.178447877951473 4.972960383771728 10.178699371058363 1 0 0
561 187 1 0.5897 -3.6155026027512696 3.5066108623600587 13.880650844365185 0 0 0
986 329 1 0.5897 -4.383371332584219 0.3617943859781501 10.454138632632738 1 1 0
524 175 1 0.5897 -3.360700040244422 3.754206462991395 9.724245789207686 0 0 0
523 175 2 -1.1794 -2.80461836123273 2.993454956692574 9.892637318057492 0 0 0
663 221 1 0.5897 -6.912319146441016 5.56154112115799 13.997228965524386 1 0 0
593 198 1 0.5897 -7.723980912649404 0.9067062183566301 14.396936159950341 1 0 0
589 197 2 -1.1794 -5.755234131726466 1.266688681490732 14.425111540093623 1 0 0
630 210 1 0.5897 -8.31110327061515 1.7218367965090495 16.530254610014325 1 0 0
571 191 2 -1.1794 -5.942230613490951 0.5819834749941561 18.036895655490596 0 0 0
637 213 2 -1.1794 -5.693473222684927 3.547161969616561 16.413140410235876 1 0 0
164 55 1 0.5897 -8.619408164225351 1.7948609672583715 18.737823259740438 1 0 -1
572 191 1 0.5897 -6.638437090974281 0.16222492633868513 17.53158998473208 0 0 0
639 213 1 0.5897 -6.410824947015605 3.10271911872195 16.86503212148162 1 0 0
638 213 1 0.5897 -6.124690710816294 4.203264528674205 15.865589496968704 1 0 0
591 197 1 0.5897 -5.302298474058541 0.4334781615302534 14.5552396805865 1 0 0
629 210 1 0.5897 -8.963641333988203 3.025032924064887 16.94017474617324 1 0 0
628 210 2 -1.1794 -8.262309370225498 2.420414260048978 17.18281969524903 1 0 0
590 197 1 0.5897 -5.663359004801266 1.7230196882129525 15.2614514864863 1 0 0
20 7 1 0.5897 -5.881266133188522 1.929788393268919 19.00741917260531 0 0 -1
661 221 2 -1.1794 -7.143151950614921 4.960195323913963 14.705262548165683 1 0 0
601 201 2 -1.1794 -7.487885167274566 5.024835927888937 19.180532836371732 1 0 0
603 201 1 0.5897 -6.808147900794404 4.368416024911085 19.333415834403105 1 0 0
165 55 1 0.5897 -9.743172919291743 0.8586833111739324 19.128774158036492 1 0 -1
146 49 1 0.5897 -1.3950971980028792 6.655827855205717 2.1506278331477224 1 0 0
332 111 1 0.5897 -2.185862090645552 9.202861826561445 0.7779571276787617 1 0 0
289 97 2 -1.1794 -2.5720397176478658 10.303277626699163 2.2220284291457344 1 0 0
290 97 1 0.5897 -1.9904393741720496 10.946072566065864 2.628001700565837 1 0 0
145 49 2 -1.1794 -0.6886363149444001 6.861590135689428 1.5383467247647895 1 0 0
291 97 1 0.5897 -3.4480311929792333 10.676665958933155 2.319899794993644 1 0 0
147 49 1 0.5897 -1.034725465896849 7.576520872232017 1.0041672103369284 1 0 0
255 85 1 0.5897 -2.2445698872795647 9.299154065277003 3.776417781781866 1 0 0
9 3 1 0.5897 -1.185121050309319 5.981076493604379 4.353719860248729 0 0 0
112 38 2 -1.1794 -3.602068249305255 6.4539202802306255 2.70003097272125 1 0 0
113 38 1 0.5897 -3.715370240050385 6.054726771702999 3.562574298101563 1 0 0
187 63 2 -1.1794 0.9437964342272762 10.144076655836724 0.3741957371900244 0 0 0
253 85 2 -1.1794 -2.324624212305258 9.115312714879352 4.712339729138604 1 0 0
114 38 1 0.5897 -3.745807355844185 5.7364831359039865 2.082908214215953 1 0 0
224 75 1 0.5897 -0.22151418873058581 11.269351247378557 3.7592632345882206 0 0 0
331 111 2 -1.1794 -2.153977954470321 8.530306044355523 0.09759946938492275 1 0 0
257 86 1 0.5897 -4.314401396452695 8.39228721049665 4.546017803806938 1 0 0
292 98 2 -1.1794 -5.037136467448962 10.520033424987314 6.9546945858622555 1 0 0
111 37 1 0.5897 -5.5756121914587675 7.126632075262771 7.374390448282856 1 0 0
8 3 1 0.5897 -0.8576221460099696 6.479934203638477 5.744960459859847 0 0 0
302 101 1 0.5897 -1.9090763955963372 10.537522972163178 6.223129911909813 1 0 0
294 98 1 0.5897 -5.169498664349131 10.079921762132516 7.79431612052119 1 0 0
236 79 1 0.5897 -3.0070162311863333 7.934746572128436 7.50142794987727 0 0 0
237 79 1 0.5897 -2.5541179189117034 8.884275733070872 8.590038022379158 0 0 0
301 101 2 -1.1794 -2.286464675357086 11.168026592679086 6.836581242945707 1 0 0
110 37 1 0.5897 -4.473703392487892 6.668226141437699 6.44284625851897 1 0 0
109 37 2 -1.1794 -4.635654293748971 6.9480385449415305 7.343762392473522 1 0 0
293 98 1 0.5897 -4.090019231115278 10.646192863147004 6.89645009412608 1 0 0
235 79 2 -1.1794 -2.2391126688243324 8.187916126763232 8.01371863087915 0 0 0
837 279 1 0.5897 -6.119513754766897 8.832689219777285 9.241540577178208 1 0 0
98 33 1 0.5897 -4.349306047712361 5.889784132310645 8.843130882986776 1 0 0
835 279 2 -1.1794 -5.454702695459776 9.456209575877262 9.533960026314821 1 0 0
254 85 1 0.5897 -1.8925929417152367 8.269032799636598 4.828469504194987 1 0 0
7 3 2 -1.1794 -0.9157558345150782 6.764660817822531 4.83299261598313 0 0 0
793 265 2 -1.1794 -6.178134132596471 9.88043231667568 12.252684137179893 1 0 0
617 206 1 0.5897 -7.508581794787098 7.282827098401504 12.334542106688614 1 0 0
616 206 2 -1.1794 -6.784825786631456 6.682729488063483 12.514485428644281 1 0 0
794 265 1 0.5897 -5.541329357519916 10.57750553272423 12.410410510840746 1 0 0
649 217 2 -1.1794 -4.366909165242115 7.456669461730986 11.272863092412594 1 0 0
759 253 1 0.5897 -5.670474935505627 9.249496797984774 13.819922488886942 1 0 0
651 217 1 0.5897 -5.124278131204324 7.387493736571737 11.854177656878926 1 0 0
795 265 1 0.5897 -6.054244505827192 9.645865886243575 11.333009227002885 1 0 0
650 217 1 0.5897 -3.6115649430607055 7.449436199695796 11.860743383757624 1 0 0
836 279 1 0.5897 -4.772375698166836 8.912424441044516 9.927665054767894 1 0 0
513 171 1 0.5897 -4.056884320499908 5.850076916110956 14.305437502012202 0 0 0
266 89 1 0.5897 -3.2642615619114297 11.34606160377222 10.188846833433397 1 0 0
691 231 2 -1.1794 -2.302054394149018 9.913836478580938 10.088597254293468 0 0 0
618 206 1 0.5897 -6.849806075312242 6.016327756793916 11.830470490432008 1 0 0
99 33 1 0.5897 -4.134330773078368 5.865426813145511 10.341399891206043 1 0 0
797 266 1 0.5897 -7.313710099643265 10.517666214762636 17.160627798305015 1 0 0
741 247 1 0.5897 -5.92719390695259 8.694708893843485 18.849221788516772 0 0 0
796 266 2 -1.1794 -8.169774805662488 10.156940604396723 17.391644308077588 1 0 0
512 171 1 0.5897 -4.366768655151489 7.251146484205106 14.788208457064117 0 0 0
615 205 1 0.5897 -6.956852880950757 6.233452842305103 16.25520729581151 1 0 0
613 205 2 -1.1794 -7.435792681553156 6.587737744780786 17.004403373047637 1 0 0
798 266 1 0.5897 -8.326018872007008 9.473487335625206 16.739954003983023 1 0 0
740 247 1 0.5897 -6.217013391310731 7.551027338332565 17.90059393255003 0 0 0
739 247 2 -1.1794 -5.51084451422674 7.957214730092171 18.40311877272113 0 0 0
805 269 2 -1.1794 -5.971138933765834 11.123803704220908 16.23175649271748 1 0 0
333 111 1 0.5897 -8.797079184009394 9.198457708580484 18.817846979716762 1 0 -1
758 253 1 0.5897 -5.633763951384051 9.452411655873197 15.319629140628232 1 0 0
762 254 1 0.5897 -8.111128875440869 8.055052286477572 15.033944789188567 1 0 0
757 253 2 -1.1794 -5.499145142313839 8.789981299200385 14.641904393278972 1 0 0
614 205 1 0.5897 -7.354917337056651 5.915143069727124 17.680599770170986 1 0 0
314 105 1 0.5897 -0.2561409859258488 15.238132623545074 1.631536713458795 1 0 0
280 94 2 -1.1794 -3.4711047007552374 13.728740313123 2.303483537218221 1 0 0
315 105 1 0.5897 -0.6901354753134341 14.088033004724512 0.7479271592508772 1 0 0
225 75 1 0.5897 -0.6488092840328017 12.70545324892716 3.9762706066534053 0 0 0
281 94 1 0.5897 -3.3464008598026003 13.337471192634462 3.1680736453802902 1 0 0
282 94 1 0.5897 -2.631657405042867 14.143421945457359 2.1043387699558664 1 0 0
313 105 2 -1.1794 -1.0337800176980974 14.813743187192534 1.269015179373792 1 0 0
223 75 2 -1.1794 -0.6515378743919151 12.005242404708522 3.323647404948426 0 0 0
306 102 1 0.5897 -4.664776928659003 11.576028935348152 3.789619410144376 1 0 0
423 141 1 0.5897 -2.634702593591399 16.540592857690854 3.8082597598210883 1 0 0
500 167 1 0.5897 -1.8745894180007696 16.181023778541807 0.09410452025218335 1 0 0
269 90 1 0.5897 -3.5873754134496645 12.602298103544614 0.638726358700347 1 0 0
421 141 2 -1.1794 -2.3807075811971163 16.04442723381606 4.586388734292712 1 0 0
326 109 1 0.5897 -3.195765936805067 12.356522233691207 5.469361541560237 1 0 0
279 93 1 0.5897 -5.443199083781099 13.845114212126251 7.652714641528961 1 0 0
405 135 1 0.5897 -2.7126171058123894 16.262008987063957 8.481329887140996 0 0 0
327 109 1 0.5897 -4.427133995280421 13.223363863597342 5.625907591296762 1 0 0
277 93 2 -1.1794 -4.5248967449603565 13.662826207789116 7.453068659844639 1 0 0
278 93 1 0.5897 -4.07063792487711 14.483953445175882 7.642015166202001 1 0 0
425 142 1 0.5897 -4.241961764804927 16.075103858517224 4.844048954870624 1 0 0
403 135 2 -1.1794 -2.5149563224330183 15.580490205562601 7.838889193913432 0 0 0
267 89 1 0.5897 -3.8141910350419512 12.269924385633267 9.123074533823921 1 0 0
1004 335 1 0.5897 -5.5406197843407075 16.897257702817065 9.023738588376581 1 0 0
176 59 1 0.5897 -1.3552158672467582 14.473858385039728 5.192286201630739 0 0 0
325 109 2 -1.1794 -3.8996733811814215 12.769117658015837 4.968848364951787 1 0 0
404 135 1 0.5897 -1.6886879936151167 15.85684986404101 7.442335908907321 0 0 0
422 141 1 0.5897 -1.9937685880907614 16.696288234151545 5.170833404509215 1 0 0
303 101 1 0.5897 -1.541156832461755 11.691077404423714 7.131899992927691 1 0 0
729 243 1 0.5897 -4.124865951235572 12.518521067685294 13.458174542740576 0 0 0
1003 335 2 -1.1794 -5.854227148064438 16.546187021877707 9.857162465818195 1 0 0
1005 335 1 0.5897 -5.215537105489255 15.871925114300883 10.089033608998381 1 0 0
784 262 2 -1.1794 -6.755977669123418 13.868247395855365 11.694255832319165 1 0 0
819 273 1 0.5897 -3.8921667245544804 13.633589358798162 10.658798927395184 1 0 0
773 258 1 0.5897 -6.8357271278959235 12.537095452437972 10.498926063126888 1 0 0
818 273 1 0.5897 -4.907974150485925 14.409873604480081 11.469761132227308 1 0 0
786 262 1 0.5897 -6.793340079187869 13.594800886835504 12.610755976767217 1 0 0
817 273 2 -1.1794 -4.112376131707759 14.51889790423366 10.948732065257818 1 0 0
925 309 2 -1.1794 -6.226463363890518 16.05977191930822 14.477023230034272 1 0 0
926 309 1 0.5897 -5.48770049299215 15.45109315590537 14.486007418028901 1 0 0
727 243 2 -1.1794 -4.117354519647892 11.671067382716895 13.013156053357632 0 0 0
831 277 1 0.5897 -8.117358246480642 12.118455146142532 14.040781941370005 1 0 0
679 227 2 -1.1794 -3.9490621283135754 14.150410766629832 14.447700020911931 0 0 0
772 258 2 -1.1794 -6.679659558741827 11.95490418339821 9.755329887047813 1 0 0
728 243 1 0.5897 -3.3678572064964936 11.718343971427 12.419577242775654 0 0 0
829 277 2 -1.1794 -7.390028561443891 12.665838131450338 14.336834172037682 1 0 0
774 258 1 0.5897 -5.785043873615807 11.638618863558277 9.88166866298455 1 0 0
265 89 2 -1.1794 -3.9120743914517138 12.036189705812784 10.046084865156924 1 0 0
770 257 1 0.5897 -8.000649616408987 12.166942030962582 19.216131769750064 1 0 0
830 277 1 0.5897 -7.711800207252929 13.079812389966115 15.137659813594627 1 0 0
907 303 2 -1.1794 -5.5715622388694825 15.583616556612663 17.96138886316644 0 0 0
908 303 1 0.5897 -5.988839213029074 15.353115765580021 17.13140576926694 0 0 0
781 261 2 -1.1794 -7.883281274706016 13.832587500351815 16.690402929115095 1 0 0
782 261 1 0.5897 -7.531352129516657 13.40471261457317 17.470939791259276 1 0 0
783 261 1 0.5897 -8.694506903047577 14.244744123841679 16.98773051262419 1 0 0
927 309 1 0.5897 -6.024287523242016 16.69280300818243 15.165919121189503 1 0 0
769 257 2 -1.1794 -7.261324570681962 12.753625672388344 19.05631331582093 1 0 0
681 227 1 0.5897 -4.0381107663208615 13.595279428295541 15.222367801286918 0 0 0
806 269 1 0.5897 -6.464868232726409 11.704062885226385 15.65237752085144 1 0 0
807 269 1 0.5897 -5.213448006450549 11.642561918815579 16.50201023622097 1 0 0
930 310 1 0.5897 -7.95999119019319 16.00996174114521 14.547823105280301 1 0 0
771 257 1 0.5897 -6.488267992679982 12.197418624808057 19.153059423270776 1 0 0
499 167 2 -1.1794 -9.14714546454059 16.94855480611207 19.272413524763138 1 0 -1
355 119 2 -1.1794 0.8523200309852648 17.8621247197851 -0.032407920469701784 0 0 0
391 131 2 -1.1794 -1.0035168557853327 19.275098127445737 3.528159674763044 0 0 0
457 153 2 -1.1794 -2.9921213400204167 17.453999753605054 2.4948195695889046 1 0 0
393 131 1 0.5897 -1.208825471158082 20.06246445729795 4.032335799833346 0 0 0
392 131 1 0.5897 -0.21672186657645653 19.505055669904493 3.0337807882194228 0 0 0
459 153 1 0.5897 -2.3415370605200003 18.150376671581725 2.5847530893891415 1 0 0
481 161 2 -1.1794 -0.9843838580518902 22.09277070701426 1.2594777000237272 1 0 0
448 150 2 -1.1794 -3.2638048784774494 21.372135915782984 2.8749443099656027 1 0 0
458 153 1 0.5897 -3.038633751932106 17.289269570994115 1.5531124134453875 1 0 0
495 165 1 0.5897 -3.7204463958837106 20.48075557022183 4.324222743173516 1 0 0
483 161 1 0.5897 -1.6815260150865683 21.80131177232041 1.8471394165371922 1 0 0
938 313 1 0.5897 -0.8237263887587569 20.53274765228423 0.22108896883892837 1 0 1
449 150 1 0.5897 -3.57074429192442 20.760356378456237 2.2058316135590204 1 0 0
437 146 1 0.5897 -2.9760281909146173 19.509161182979213 0.4390370563019548 1 0 0
450 150 1 0.5897 -3.8993596830262973 22.08770938165903 2.8556245290631446 1 0 0
356 119 1 0.5897 0.8304921495904161 17.462352447595315 0.8369976386851062 0 0 0
939 313 1 0.5897 -0.43044256116762414 19.075766398626946 0.1001785032424296 1 0 1
937 313 2 -1.1794 -1.113259773483557 19.698718417996673 -0.1487946069180014 1 0 1
343 115 2 -1.1794 -0.783370907340271 21.75875158458888 4.845782564061394 0 0 0
469 157 2 -1.1794 -2.236145488572806 18.191521945702576 6.396336932637276 1 0 0
494 165 1 0.5897 -4.195116746635419 20.634539379458246 5.753502827321751 1 0 0
860 287 1 0.5897 -2.5054450435635873 18.58933826619706 9.408766710403366 0 0 0
445 149 2 -1.1794 -4.7801310541795745 21.536805068270752 7.230068565826148 1 0 0
446 149 1 0.5897 -4.382863024557172 21.128820429150203 7.999411035019424 1 0 0
447 149 1 0.5897 -5.6905330941097585 21.69035094856399 7.482969769534204 1 0 0
470 157 1 0.5897 -2.769336636022941 18.779458830511402 5.861298623813592 1 0 0
471 157 1 0.5897 -2.8326404682411948 17.879106567569785 7.076686571488695 1 0 0
460 154 2 -1.1794 -4.719875620874426 17.63069140030415 7.669658118048469 1 0 0
461 154 1 0.5897 -5.307844959138121 18.34681862015678 7.429348692998202 1 0 0
462 154 1 0.5897 -4.777239907125097 17.01695373574953 6.937370184053355 1 0 0
433 145 2 -1.1794 -4.0183041615761645 20.1589499769956 9.449534404869267 1 0 0
493 165 2 -1.1794 -4.039146496778208 19.97849136344574 5.074145628221841 1 0 0
345 115 1 0.5897 -1.6437182541670503 22.176793864498087 4.883195243108888 0 0 0
952 318 2 -1.1794 -6.533657007847447 21.427130484293393 12.260668489571133 1 0 0
961 321 2 -1.1794 -6.000206199629652 17.91531935715375 12.270842093371922 1 0 0
953 318 1 0.5897 -7.201088820595203 21.986592998974828 11.863433308868068 1 0 0
998 333 1 0.5897 -6.908248364913234 20.855172253119505 13.971808346867101 1 0 0
895 299 2 -1.1794 -4.040951267165756 19.510795518761967 13.168843055407677 0 0 0
896 299 1 0.5897 -4.655126545994586 19.0716706876592 12.580492493027545 0 0 0
434 145 1 0.5897 -3.8941054574501015 20.756921871881055 10.186558085366368 1 0 0
954 318 1 0.5897 -5.710199306715184 21.89101702500767 12.108886774055723 1 0 0
985 329 2 -1.1794 -4.016274550224516 22.36580407567365 11.102664003985373 1 0 0
962 321 1 0.5897 -5.987150512000216 17.232507061688587 12.941535875886126 1 0 0
941 314 1 0.5897 -6.646237961196419 20.245656287108567 10.840744967092034 1 0 0
963 321 1 0.5897 -5.995697066407796 17.437209785502937 11.44163597628621 1 0 0
848 283 1 0.5897 -4.2586905775148525 20.794863497238836 14.479577083684482 0 0 0
977 326 1 0.5897 -7.6178617214987 18.447472801231683 12.799597367746562 1 0 0
435 145 1 0.5897 -4.862946914804651 19.74151676095468 9.618862148676888 1 0 0
897 299 1 0.5897 -3.608281072072117 18.79827305936908 13.639341560747518 0 0 0
940 314 2 -1.1794 -6.732467072019984 19.952767979542813 9.933588572757618 1 0 0
964 322 2 -1.1794 -8.107251626728118 17.86638898185266 16.82849639540092 1 0 0
974 325 1 0.5897 -6.305603398263347 18.407723401122105 16.463777700387823 1 0 0
975 325 1 0.5897 -4.827700921252 18.70961170965726 16.334001915240293 1 0 0
966 322 1 0.5897 -8.844094551578479 18.473220136861777 16.756758433100657 1 0 0
973 325 2 -1.1794 -5.562657695119461 18.31103586209519 15.867967998074613 1 0 0
949 317 2 -1.1794 -7.9727436819578905 21.520638648913184 17.093606478107247 1 0 0
950 317 1 0.5897 -7.883388330943324 21.167743784413425 16.20836589359333 1 0 0
951 317 1 0.5897 -7.777348143228334 20.780198827694242 17.66789314300525 1 0 0
965 322 1 0.5897 -8.3410014463401 17.136169383875377 16.255455803835382 1 0 0
573 191 1 0.5897 -5.66702745914371 22.516793331905085 18.663359855351104 0 -1 0
999 333 1 0.5897 -6.319491874176269 19.892527242932864 14.981038107116104 1 0 0
997 333 2 -1.1794 -7.126209652298742 20.358123001388485 14.760254078712371 1 0 0
357 119 1 0.5897 -5.877550527787013 17.30849080664221 18.905990183448125 0 0 -1
501 167 1 0.5897 -8.691625437890458 17.418844082887155 18.574135309970416 1 0 -1
847 283 2 -1.1794 -4.209393003030575 21.5712005646956 15.037366499975908 0 0 0
48 16 1 0.5897 1.8493394815557718 5.398733002635806 3.429723528040447 0 0 0
54 18 1 0.5897 2.956783313011668 3.5421160321245915 2.814887072914586 0 0 0
71 24 1 0.5897 2.9606597148653293 0.42937762700291965 2.017104620675706 0 0 0
16 6 2 -1.1794 5.232700155850768 4.9614939672741105 0.15581190095179542 0 0 0
52 18 2 -1.1794 3.751494559689573 3.1601589794277873 3.1874755741575465 0 0 0
32 11 1 0.5897 0.9457725765996781 1.1270483304073282 3.2961947688820654 0 0 0
31 11 2 -1.1794 1.139353184482836 0.7776289649708076 2.4263665513405317 0 0 0
46 16 2 -1.1794 1.554791462996259 4.7815796144436025 2.7599938356122573 0 0 0
527 176 1 0.5897 3.911553597003012 1.8951160957829143 0.6338806751729357 0 0 1
47 16 1 0.5897 1.6003878512620453 5.275892151905465 1.9416045473391699 0 0 0
70 24 2 -1.1794 3.6437652193452603 0.43759878464588625 1.3466089122191913 0 0 0
526 176 2 -1.1794 3.8573627941808493 2.5998584929681154 -0.011552119666825234 0 0 1
53 18 1 0.5897 4.410435166268833 3.259065159227578 2.5002276833014188 0 0 0
5 2 1 0.5897 3.3116601938412646 0.19070203611689018 4.5565153427251035 0 0 0
4 2 2 -1.1794 4.096633479196644 0.7364608399635396 4.508575938780716 0 0 0
18 6 1 0.5897 4.836497945745782 4.09034689168918 0.13488381672720884 0 0 0
528 176 1 0.5897 2.9311699542552816 2.8413314875061415 -0.026003247594663936 0 0 1
6 2 1 0.5897 3.7752671595379503 1.5955922124419923 4.234846643726551 0 0 0
76 26 2 -1.1794 0.306099862790294 2.194586868288164 4.680927739194795 0 0 0
59 20 1 0.5897 1.4472522125341882 3.454730650636212 5.538122004205846 0 0 0
60 20 1 0.5897 2.6058668982570588 3.520843071603278 6.51026830823971 0 0 0
58 20 2 -1.1794 1.8708223153800665 4.032750760515638 6.1726999098444155 0 0 0
34 12 2 -1.1794 -0.18164032652867057 1.2386160006073117 7.295486717162037 0 0 0
35 12 1 0.5897 -0.07588485737275086 1.8121863038147485 8.054455680265841 0 0 0
45 15 1 0.5897 0.11368406164598799 4.985322308829001 7.07879752563899 0 0 0
522 174 1 0.5897 2.065848411952228 5.5075016178603065 9.1541911713311 0 0 0
43 15 2 -1.1794 -0.7479416700090433 5.400594082262457 7.116537302508928 0 0 0
44 15 1 0.5897 -0.9044526142179445 5.544382016870834 8.049811904288815 0 0 0
36 12 1 0.5897 -1.0797680947955701 0.9143510748952886 7.363041186844685 0 0 0
77 26 1 0.5897 0.09655327410617787 1.9846286322623985 5.590977354454975 0 0 0
402 134 1 0.5897 1.1402137966550194 0.06547395135205616 7.991211909969222 0 1 0
401 134 1 0.5897 2.374729971706273 0.42914271018543426 8.788447170033612 0 1 0
11 4 1 0.5897 2.127622453275718 5.658321482855334 5.34913560117824 0 0 0
525 175 1 0.5897 -1.9489261738021226 3.2390015324377512 9.540709520183382 0 0 0
24 8 1 0.5897 0.6113729965413857 3.6181281917580153 9.574800047983354 0 0 0
22 8 2 -1.1794 0.06785883612453736 2.8375547097885176 9.467129316764082 0 0 0
537 179 1 0.5897 -2.432432829556803 2.2820237924767213 11.747298652739934 0 0 0
574 192 2 -1.1794 0.3271842347849385 0.8893645711421225 11.35622265180677 0 0 0
557 186 1 0.5897 0.36822442312201975 2.861775860030625 13.576201429980857 0 0 0
556 186 2 -1.1794 0.5784925200664182 3.7133592151015327 13.192937649595335 0 0 0
552 184 1 0.5897 -2.6188437132928772 4.84382006240903 12.509900533661655 0 0 0
535 179 2 -1.1794 -2.30662754319751 1.4849360129444906 12.262146099614625 0 0 0
23 8 1 0.5897 0.4373511208533496 2.201433776890694 10.079546325400473 0 0 0
536 179 1 0.5897 -2.3502864174939075 1.777865922080833 13.172332301634084 0 0 0
576 192 1 0.5897 -0.31262220219845194 1.1035992415144444 12.035229872741112 0 0 0
558 186 1 0.5897 -0.15876734165304462 3.904138741054206 12.613061620989962 0 0 0
550 184 2 -1.1794 -1.7112066246358486 4.97104628364872 12.233586347134661 0 0 0
551 184 1 0.5897 -1.3132931784582658 5.476875631067535 12.942090174205354 0 0 0
575 192 1 0.5897 1.013503349943889 0.40654677256259164 11.816768285575794 0 0 0
520 174 2 -1.1794 2.108648563148666 4.802475353514931 9.800203570301834 0 0 0
564 188 1 0.5897 -2.195045842259181 4.721010714781828 16.99635793530048 0 0 0
549 183 1 0.5897 -4.348228225386792 4.636967464867173 17.000456205747035 0 0 0
563 188 1 0.5897 -1.2416842508793096 5.218550771975638 15.930719359198983 0 0 0
582 194 1 0.5897 -2.0942007014067556 3.2815174617136487 15.251671078577933 0 0 0
562 188 2 -1.1794 -1.4317205035491893 4.459084982752059 16.481512026895302 0 0 0
538 180 2 -1.1794 -3.338230184607853 1.1561823799516122 17.311060975886207 0 0 0
539 180 1 0.5897 -3.0782887151846694 1.8408484509686631 17.927396744033835 0 0 0
580 194 2 -1.1794 -2.4732126923477544 2.5032300331781046 14.843156358516808 0 0 0
581 194 1 0.5897 -2.7117608805148548 1.938331037053507 15.578097668209002 0 0 0
547 183 2 -1.1794 -3.7985428918228257 5.3574594929749955 17.308691260092424 0 0 0
540 180 1 0.5897 -4.252187547367685 0.9721572602666066 17.528220379454922 0 0 0
508 170 2 -1.1794 0.4049766534021666 1.199482115478863 14.6920630129287 0 0 0
84 28 1 0.5897 -3.734917629913415 5.719385088790771 19.345448522427 0 0 -1
510 170 1 0.5897 0.47023856507957973 1.6394026482755035 15.539606049289311 0 0 0
220 74 2 -1.1794 3.765658683383508 11.014270716926752 3.1850920910514704 0 0 0
200 67 1 0.5897 0.4650682483926105 7.957979217826724 2.1467972392334844 0 0 0
240 80 1 0.5897 3.204183036210477 7.464316950046638 1.1522575363650152 0 0 0
238 80 2 -1.1794 3.5405014127630734 8.100494333384422 1.7834288151771829 0 0 0
174 58 1 0.5897 3.578752868129511 9.23571856200374 4.320712076660688 0 0 0
82 28 2 -1.1794 2.366026525248384 6.0486163609945205 0.4334104853747217 0 0 0
239 80 1 0.5897 3.9092323416237393 8.800877053454006 1.2451224913084484 0 0 0
201 67 1 0.5897 1.8927216965529867 8.379735349672004 2.4224785126945254 0 0 0
199 67 2 -1.1794 0.9840575583864357 8.645178501091548 2.564714044257407 0 0 0
245 82 1 0.5897 1.007729857038247 9.509433795668548 4.199400323637784 0 0 0
221 74 1 0.5897 4.491415437577436 10.734386061848898 2.6271911479917414 0 0 0
189 63 1 0.5897 1.8813415640232947 10.302808323633581 0.263872051530788 0 0 0
29 10 1 0.5897 4.947683070184814 7.0654385777149304 2.304546884904024 0 0 0
694 232 2 -1.1794 3.709513486838966 10.314921220444221 0.20841749568661677 0 0 1
696 232 1 0.5897 4.120956961315108 11.176537532801309 0.276575217361545 0 0 1
188 63 1 0.5897 0.8764525843448006 9.670580562392146 1.2033278253214013 0 0 0
83 28 1 0.5897 1.7859941814237708 6.5867000984838 -0.10533891724286892 0 0 0
246 82 1 0.5897 0.6323289222204123 9.819984739913783 5.632722133682229 0 0 0
66 22 1 0.5897 3.026405369752249 6.611093732874086 7.619006874091259 0 0 0
244 82 2 -1.1794 0.8866181749809936 10.236982532205712 4.809517441625912 0 0 0
204 68 1 0.5897 0.9647948121787397 8.111826484238593 7.638307616008037 0 0 0
64 22 2 -1.1794 2.2869935633256295 6.879511287060874 8.16449836685672 0 0 0
191 64 1 0.5897 0.4854347071104854 10.00227856132786 8.661902099529883 0 0 0
202 68 2 -1.1794 0.3659866129296496 8.778660018119472 7.302070158270213 0 0 0
203 68 1 0.5897 -0.48041186112010736 8.559823025369807 7.692033035789091 0 0 0
172 58 2 -1.1794 3.916839616253804 8.63930140265217 4.988692048060803 0 0 0
65 22 1 0.5897 2.630688076430369 7.595078143398043 8.69935941958071 0 0 0
192 64 1 0.5897 0.9163130791195648 11.115697795372022 9.592767272575838 0 0 0
190 64 2 -1.1794 0.4388217538492869 10.286245351845302 9.574781605103883 0 0 0
10 4 2 -1.1794 2.0968728113689608 6.443836678047798 4.802998688210386 0 0 0
12 4 1 0.5897 1.1731513104945357 6.694867330747737 4.7954639926435885 0 0 0
173 58 1 0.5897 3.369755658317298 7.85760191351574 4.911610402709946 0 0 0
744 248 1 0.5897 0.6338647131392312 7.50630252411072 10.525239443024615 0 0 0
743 248 1 0.5897 0.8718100722813507 8.971774429538987 10.821684517629036 0 0 0
678 226 1 0.5897 0.4729993778247792 9.603128299389704 14.137988550518171 0 0 0
705 235 1 0.5897 -1.5122806055607967 8.925172717131765 13.206267217529069 0 0 0
586 196 2 -1.1794 -0.9459709649819952 6.2440827860712735 9.862873580071852 0 0 0
742 248 2 -1.1794 1.016284444663361 8.094498993444793 11.176381977669266 0 0 0
703 235 2 -1.1794 -1.5248902163732128 8.542125624331163 12.32917715654299 0 0 0
704 235 1 0.5897 -0.6078838038234498 8.341298154680898 12.141734147153835 0 0 0
724 242 2 -1.1794 0.6478831750779142 10.94047517174807 13.008316455734699 0 0 0
750 250 1 0.5897 -3.0955304559376966 10.320335393993956 14.174400965884502 0 0 0
692 231 1 0.5897 -1.413089556823778 10.247290763891408 9.966524666924787 0 0 0
693 231 1 0.5897 -2.2813317093496344 9.482219115700394 10.942677335212457 0 0 0
726 242 1 0.5897 -0.13405117295354607 11.399848509624286 12.701958995283073 0 0 0
587 196 1 0.5897 -1.226214992889341 5.9195814248136465 10.718651845902164 0 0 0
588 196 1 0.5897 -1.5859769001756021 6.920592359952282 9.641432018237436 0 0 0
707 236 1 0.5897 -3.816215106807883 8.89716484290664 17.684047620489117 0 0 0
706 236 2 -1.1794 -3.0181492646825676 9.26188140349383 17.301415513867717 0 0 0
708 236 1 0.5897 -2.341999988412402 8.611374995764463 17.491099628625484 0 0 0
568 190 2 -1.1794 -0.9732276302596956 7.397904747270752 18.127003799189332 0 0 0
569 190 1 0.5897 -1.2022012878345816 6.469766155202064 18.176396404034243 0 0 0
695 232 1 0.5897 -2.887279241910141 10.294824361539698 18.81488692121936 0 0 0
514 172 2 -1.1794 -1.0691396930573864 6.556720655868316 14.781556445526766 0 0 0