LAMMPS data file via write_data, version 30 Jul 2021, timestep = 23000000

972 atoms
2 atom types
648 bonds
1 bond types
324 angles
1 angle types

0.12221832676587674 19.877782673233114 xlo xhi
0.05802280503738366 19.941978194961443 ylo yhi
0.10695358718514925 20.593044412825506 zlo zhi

Masses

1 1.008
2 15.999

Pair Coeffs # lj/cut/tip4p/long/omp

1 0 0
2 0.21084 3.1668

Bond Coeffs # harmonic/omp

1 450 0.9572

Angle Coeffs # harmonic/omp

1 55 104.52

Atoms # full

4 2 2 -1.1794 4.202806198535259 1.098142715158373 3.37777677330194 0 0 0
6 2 1 0.5897 4.670488323794262 0.9221227178559701 4.1942268139349 0 0 0
17 6 1 0.5897 4.345199402619659 4.427498934612674 3.0726053536633766 0 0 0
10 4 2 -1.1794 1.5678612554105376 4.069534548696677 3.8105761235967863 0 0 0
11 4 1 0.5897 1.2967782044558887 3.2688263581810326 3.361379484743618 0 0 0
12 4 1 0.5897 2.520038901470046 3.996424898245309 3.8778163437182585 0 0 0
16 6 2 -1.1794 4.226990861068593 3.8146178517735736 3.7983576431233477 0 0 0
18 6 1 0.5897 4.283378877365699 2.949088959855027 3.3932924026357894 0 0 0
23 8 1 0.5897 2.6536206469520693 0.9776508372629606 4.416729466877287 0 0 0
31 11 2 -1.1794 1.042019361185861 1.9658730084684182 2.1704805523753468 0 0 0
33 11 1 0.5897 1.688036807948567 2.238994503076989 1.51899431060355 0 0 0
3 1 1 0.5897 3.5084432039298945 2.4204811451166774 0.3471379660028212 0 0 0
5 2 1 0.5897 4.372667670412697 0.32926109128353614 2.8334059427381924 0 0 0
236 79 1 0.5897 1.0163450952160384 0.2314827110648092 2.0047875627970675 0 1 0
22 8 2 -1.1794 2.0204268309948263 0.8664547910419519 5.125992412211947 0 0 0
1 1 2 -1.1794 2.6018060337591042 2.6623188786560297 0.15735451776009754 0 0 0
32 11 1 0.5897 0.2014008680865727 2.2435092799555645 1.8061396014746376 0 0 0
81 27 1 0.5897 0.29543939185278856 4.563136907781619 5.096902809899948 1 0 0
356 119 1 0.5897 1.7342176074666233 2.3969617506402137 8.475351475406818 0 0 0
27 9 1 0.5897 2.7527732711887496 4.488805173802985 6.466846571019324 0 0 0
325 109 2 -1.1794 2.7692031659800023 2.7823998070149782 6.98344003301069 0 0 0
326 109 1 0.5897 2.5467135102265375 2.1140041074234563 6.335293920106634 0 0 0
327 109 1 0.5897 3.7024259542851516 2.651733690625554 7.152328237014466 0 0 0
561 187 1 0.5897 1.1292954874966625 0.3484422979865207 9.210338414107808 0 1 0
355 119 2 -1.1794 1.091466644797539 2.2252561817654146 9.163652898559624 0 0 0
330 110 1 0.5897 4.2389318180731035 0.588574442392145 9.32964004980943 0 0 0
342 114 1 0.5897 4.514127823136232 4.579664142290948 10.058456169739985 0 0 0
328 110 2 -1.1794 4.089554250118141 1.238384617120473 10.016492026665803 0 0 0
102 34 1 0.5897 0.2175182170711908 0.7217676397953295 5.386763309329273 1 0 0
335 112 1 0.5897 1.5295968754973668 3.626849259181097 10.254185488834676 0 0 0
357 119 1 0.5897 0.2435013263201852 2.339496075635375 8.734279810481302 0 0 0
683 228 1 0.5897 4.804643906847855 2.7326586369927464 14.091301789193015 0 0 0
329 110 1 0.5897 4.762156803858718 1.0534764558216185 10.672080532349664 0 0 0
346 116 2 -1.1794 2.215309323365922 1.0775856579310001 12.012659270068074 0 0 0
347 116 1 0.5897 1.2840268506872636 1.0858609894773061 11.790984325659247 0 0 0
348 116 1 0.5897 2.6633253289987953 1.0650551051858501 11.166857269743662 0 0 0
350 117 1 0.5897 2.7728311610878045 4.5539313493093445 13.502611987028935 0 0 0
649 217 2 -1.1794 2.858520087819688 2.878316768857735 13.900785884209803 0 0 0
650 217 1 0.5897 2.656293811993509 2.3404600324969422 13.135206929239894 0 0 0
651 217 1 0.5897 2.328599808980862 2.50322951160174 14.604231389025735 0 0 0
334 112 2 -1.1794 1.741303104811302 4.3936225330994265 10.78673921042594 0 0 0
336 112 1 0.5897 2.693787718257497 4.366169130858702 10.879089168517863 0 0 0
340 114 2 -1.1794 4.439434119108948 4.106905285655822 10.887436044767961 0 0 0
405 135 1 0.5897 0.4791069012509763 4.549205853790609 12.013917317190337 1 0 0
680 227 1 0.5897 0.23769563600395938 2.1679187818712173 15.284978422855021 0 0 0
341 114 1 0.5897 4.36121401748279 3.1873114514531213 10.633178411216118 0 0 0
652 218 2 -1.1794 4.17566702094324 1.254894557496789 16.969656292420165 0 0 0
653 218 1 0.5897 3.3325046938624228 1.1618428842013413 17.41330770311016 0 0 0
654 218 1 0.5897 4.219755323057343 0.503562772075135 16.378126077903005 0 0 0
658 220 2 -1.1794 1.5815513767410676 4.115235237743463 17.33739366386108 0 0 0
659 220 1 0.5897 0.9605795681548375 4.31572481438172 18.03778400754435 0 0 0
664 222 2 -1.1794 4.2693013814188845 4.016714545774904 17.469503664406165 0 0 0
665 222 1 0.5897 3.3171619417433393 4.110771503688331 17.502565219822376 0 0 0
666 222 1 0.5897 4.411712047748389 3.1052285575256233 17.213917868472905 0 0 0
670 224 2 -1.1794 1.9539314162196468 1.0482536012671837 18.518485875385448 0 0 0
671 224 1 0.5897 2.1631256533729846 1.6756185407642374 19.210575398848 0 0 0
672 224 1 0.5897 0.998925347736424 1.0701465427987968 18.455300813455395 0 0 0
681 227 1 0.5897 1.198677025038773 2.6293311848287035 16.360040803677844 0 0 0
679 227 2 -1.1794 1.0496816863149023 1.924444083671888 15.729765147546052 0 0 0
2 1 1 0.5897 2.6537964672128127 3.5684734182114153 20.339182158035293 0 0 -1
660 220 1 0.5897 1.3674369688511963 4.736933558998372 16.641709151922555 0 0 0
110 37 1 0.5897 1.9243354223457425 9.200187039530535 0.7511251041080594 0 0 0
141 47 1 0.5897 1.299853667698564 7.82437879346582 2.2929440889742074 0 0 0
139 47 2 -1.1794 0.9514202952533263 8.705961868106911 2.15946997530086 0 0 0
114 38 1 0.5897 3.4019974943740947 7.660174109368745 3.768221425327722 0 0 0
674 225 1 0.5897 2.355631710279058 5.59055664296604 0.4846852306704261 0 0 1
14 5 1 0.5897 4.430398960021959 5.48500621482678 0.9524154566201515 0 0 0
13 5 2 -1.1794 4.92424549732462 5.535734540047081 1.7708557185146294 0 0 0
19 7 2 -1.1794 1.2419632785195098 5.955188303670949 1.8969193428701931 0 0 0
15 5 1 0.5897 4.693817337321662 6.389415544583811 2.1376273418113816 0 0 0
112 38 2 -1.1794 4.199271697210905 7.754903197740744 3.246872835429322 0 0 0
140 47 1 0.5897 1.2605025161888215 9.20342227509327 2.916645237134697 0 0 0
20 7 1 0.5897 1.2774434369663497 5.333762305273898 2.624153463505784 0 0 0
126 42 1 0.5897 4.2559642562722555 9.604423334278989 3.3484618706954845 0 0 0
113 38 1 0.5897 4.9106795406282835 7.571096137196103 3.8604632400243144 0 0 0
111 37 1 0.5897 3.371794038067024 9.369564263580463 0.34038071564523414 0 0 0
130 44 2 -1.1794 1.9321862393327576 7.6946317948738 4.9642500536883105 0 0 0
132 44 1 0.5897 1.0146677887042221 7.841596694208094 5.194585090753706 0 0 0
21 7 1 0.5897 0.3108609414197178 6.0239849061640145 1.6852491741903548 0 0 0
339 113 1 0.5897 4.278218895052522 5.611205276169136 7.630823197241295 0 0 0
464 155 1 0.5897 1.4431581203560677 8.886773107321233 8.155488925014978 0 0 0
26 9 1 0.5897 1.991607933477465 5.657856783427012 7.05529903784481 0 0 0
437 146 1 0.5897 4.389847205221498 7.038841733785807 9.56206179269657 0 0 0
436 146 2 -1.1794 4.237941967025614 7.711000256448245 10.226487356581798 0 0 0
435 145 1 0.5897 2.615404947883577 8.848924505727425 6.116526044917412 0 0 0
433 145 2 -1.1794 2.8372771886071178 9.349378585204937 6.9017716325810925 0 0 0
463 155 2 -1.1794 0.7398418144326475 8.65728212270179 8.763008432576198 0 0 0
345 115 1 0.5897 1.025305569471676 6.775075042473206 8.88794832320709 0 0 0
25 9 2 -1.1794 2.648322111724017 5.437620785409948 6.394539813405436 0 0 0
343 115 2 -1.1794 0.9723585980929226 5.849389107634882 8.649850371808917 0 0 0
468 156 1 0.5897 4.524248642468352 9.023569812231855 7.438013975339769 0 0 0
344 115 1 0.5897 1.3592327848419004 5.387638959540848 9.393780663945284 0 0 0
438 146 1 0.5897 4.1837614568976935 8.529108540026876 9.732379505250806 0 0 0
131 44 1 0.5897 2.149475969389824 6.854397025358055 5.368219930084561 0 0 0
337 113 2 -1.1794 4.661456552875699 5.59827538884371 8.507878660388277 0 0 0
757 253 2 -1.1794 2.5364613333518387 9.366715596767538 13.85734433280735 0 0 0
351 117 1 0.5897 3.478818515202278 5.758060541031342 14.089115306850884 0 0 0
668 223 1 0.5897 1.2951601632491565 5.719513610172894 14.610584856239525 0 0 0
759 253 1 0.5897 2.3816794676825834 8.84853498799359 13.067513874426066 0 0 0
792 264 1 0.5897 4.472236003643402 9.267110798760926 14.392032316194186 0 0 0
454 152 2 -1.1794 2.084549268794391 7.492807205097653 11.769011735235258 0 0 0
455 152 1 0.5897 2.8448999113518996 7.539666081113647 11.189306434158567 0 0 0
456 152 1 0.5897 2.279154910297044 6.766761665524293 12.361749383849741 0 0 0
349 117 2 -1.1794 2.7602832017276278 5.511128603923264 13.506762702835056 0 0 0
789 263 1 0.5897 1.5672817708753188 8.847567818842895 15.246744846072538 0 0 0
533 178 1 0.5897 0.16111413431393157 7.374493957644016 11.59387000307551 1 0 0
661 221 2 -1.1794 4.666651279735234 5.793830262231635 15.375518349581855 0 0 0
667 223 2 -1.1794 0.740311156787182 5.854247653206914 15.378904501649089 0 0 0
787 263 2 -1.1794 0.9154856332925153 8.576388852805303 15.893267247437862 0 0 0
858 286 1 0.5897 0.5957538743798012 7.456058446953787 18.60829099399155 1 0 0
662 221 1 0.5897 4.63842808040732 5.077493053746353 16.00987674653724 0 0 0
779 260 1 0.5897 2.2631309783829687 8.191487833424832 19.126611729235414 0 0 0
780 260 1 0.5897 2.939441952420047 7.576465034742696 17.919768722593904 0 0 0
675 225 1 0.5897 2.6198342018262077 5.887765455780461 19.51002044879395 0 0 0
760 254 2 -1.1794 4.379627204751294 8.137109226140467 16.83909869768809 0 0 0
761 254 1 0.5897 4.291471443897644 9.088680298243554 16.895416069776342 0 0 0
778 260 2 -1.1794 2.327011337597727 7.376883814222374 18.62789542447744 0 0 0
788 263 1 0.5897 0.9491557761040343 9.255338460293926 16.567234720256856 0 0 0
663 221 1 0.5897 4.600105910302628 6.587536159159028 15.906502791693859 0 0 0
669 223 1 0.5897 0.9171461557918028 6.755920178653572 15.647478562230614 0 0 0
673 225 2 -1.1794 2.8900961848318394 5.313417261780807 20.226543334299805 0 0 0
762 254 1 0.5897 5.03673694638352 7.917414137177498 17.499641314250617 0 0 0
109 37 2 -1.1794 2.4761412724731975 9.486877676995386 20.50943346106669 0 0 -1
121 41 2 -1.1794 4.738067160654321 12.353861083284306 1.6657703619312505 0 0 0
118 40 2 -1.1794 1.426137503156191 10.816623768423998 3.821455901096425 0 0 0
119 40 1 0.5897 2.3707743547231472 10.972033645873175 3.8231042891924165 0 0 0
120 40 1 0.5897 1.0781236735739697 11.459797583315126 3.2037501680710707 0 0 0
123 41 1 0.5897 4.0993714484203565 12.379134960368004 0.9532075728111724 0 0 0
783 261 1 0.5897 2.07312606969115 12.384050617865904 0.35639735888524504 0 0 1
124 42 2 -1.1794 4.116500767181661 10.534207804353677 3.528678348591966 0 0 0
240 80 1 0.5897 2.3855094651308537 13.882411050084645 4.462818462108278 0 0 0
127 43 2 -1.1794 1.037989491516012 12.742848673975432 1.8526912440287013 0 0 0
129 43 1 0.5897 1.203302167809219 13.59874969654512 2.2482987687307574 0 0 0
222 74 1 0.5897 4.176777405196852 13.769625103108599 2.693153538923008 0 0 0
220 74 2 -1.1794 3.7995000206826686 14.177107195561048 3.472854580145976 0 0 0
188 63 1 0.5897 0.17109967973462215 10.808446757181589 5.036491856837727 1 0 0
238 80 2 -1.1794 1.6934217846412527 13.89744489256291 5.123994169036754 0 0 0
122 41 1 0.5897 4.448109507281756 11.630991779700137 2.2223310912119048 0 0 0
125 42 1 0.5897 4.6367198798732625 10.707220214168949 4.313377909086717 0 0 0
133 45 2 -1.1794 2.190604311686428 12.01169954036078 6.86817691000925 0 0 0
134 45 1 0.5897 1.5749678698766687 12.27893339643197 7.55077149125315 0 0 0
135 45 1 0.5897 3.0546764394019115 12.158675204159785 7.253198755932592 0 0 0
445 149 2 -1.1794 4.670674575633105 12.479963225442848 8.288643166430269 0 0 0
239 80 1 0.5897 1.9406292729060495 13.2128549497831 5.745712960117528 0 0 0
446 149 1 0.5897 4.418988809029209 13.2237629662645 8.836140211040428 0 0 0
450 150 1 0.5897 4.163151099199694 11.039928117450515 9.238507201647405 0 0 0
451 151 2 -1.1794 0.642892181397047 13.052406184444738 8.779088210945762 0 0 0
453 151 1 0.5897 0.7579354210887032 12.454472728608064 9.517696138146691 0 0 0
573 191 1 0.5897 0.8415727138919225 14.831757627119892 9.217235850943364 0 0 0
544 182 2 -1.1794 3.9635325330279416 14.408483798717626 10.036357307630489 0 0 0
443 148 1 0.5897 0.9508200707600787 10.043845898981466 10.02517685382081 0 0 0
434 145 1 0.5897 2.502763409734444 10.229350521920125 6.728080161910723 0 0 0
448 150 2 -1.1794 3.792983032420173 10.413366221306447 9.860397844548888 0 0 0
444 148 1 0.5897 2.1447998612157084 10.924109601711033 10.32854660744933 0 0 0
564 188 1 0.5897 1.879039377299682 14.833186207410648 12.297624383889186 0 0 0
546 182 1 0.5897 4.71605571032481 14.385621661716094 10.627614351323938 0 0 0
457 153 2 -1.1794 2.447550181393736 12.00572406368452 13.208543437378829 0 0 0
458 153 1 0.5897 1.7291510812470368 12.101471998972714 13.833910197404274 0 0 0
459 153 1 0.5897 3.2386630751943515 12.152234705510663 13.727297097259138 0 0 0
545 182 1 0.5897 3.202911772723781 14.333435745719841 10.612745192956965 0 0 0
442 148 2 -1.1794 1.1928875365118503 10.881230587473846 10.420881776165515 0 0 0
562 188 2 -1.1794 1.7459017939884638 14.151161835951177 11.63926696065246 0 0 0
563 188 1 0.5897 2.0103676448626535 13.341253657980962 12.075728072165516 0 0 0
769 257 2 -1.1794 4.441668545843481 12.363199791584245 14.934736351802794 0 0 0
512 171 1 0.5897 0.19065894275460382 11.137270374552962 11.821432704051807 1 0 0
449 150 1 0.5897 4.204293924405483 10.633490188948985 10.696261767620475 0 0 0
758 253 1 0.5897 2.3983051898825782 10.272762478974682 13.58095345993296 0 0 0
775 259 2 -1.1794 0.7472652512374132 12.401386160730446 15.348291461731288 0 0 0
771 257 1 0.5897 4.308260123104257 13.212867480737772 15.355049053838036 0 0 0
766 256 2 -1.1794 1.3538926517998897 10.668593276086929 17.409937883135502 0 0 0
781 261 2 -1.1794 2.7601220882326842 12.125242909685873 20.228133608581885 0 0 0
768 256 1 0.5897 1.183538197773069 11.342357834746204 16.75163309181857 0 0 0
772 258 2 -1.1794 4.129733899538168 10.89526610678486 17.307972318691125 0 0 0
773 258 1 0.5897 3.184245788725694 10.989748184051164 17.424711463695406 0 0 0
774 258 1 0.5897 4.319348560722686 11.364735495534127 16.4956080710432 0 0 0
870 290 1 0.5897 4.822388277260486 14.241277650286788 17.11236297522094 0 0 0
767 256 1 0.5897 0.7937713014733123 10.90770722481521 18.148472864582743 0 0 0
869 290 1 0.5897 3.3253885779282553 14.464103167041092 17.156080273104486 0 0 0
886 296 2 -1.1794 2.3080825556630105 14.229333058809319 18.627173909857625 0 0 0
888 296 1 0.5897 2.455053322033566 13.387589353894542 19.058754678234763 0 0 0
868 290 2 -1.1794 4.075776127975832 14.47766255788719 16.561822187252655 0 0 0
965 322 1 0.5897 0.5224448584524607 14.243976909162615 18.564036681975765 1 0 0
782 261 1 0.5897 2.645505594897825 11.180562563600079 20.123935303139717 0 0 0
887 296 1 0.5897 2.3925664613922004 14.876269367056198 19.327635121717144 0 0 0
777 259 1 0.5897 0.9883317442977296 13.30867099540107 15.535764271179696 0 0 0
764 255 1 0.5897 5.01067271724333 11.16686041406287 18.80976371054055 0 0 0
233 78 1 0.5897 4.291601079350046 17.544710758201404 3.0513987866096737 0 0 0
248 83 1 0.5897 0.9577663215144113 16.188846223052074 2.9833603743679773 0 0 0
890 297 1 0.5897 1.9238303341230123 18.866544272801427 0.32315202318877545 0 0 1
235 79 2 -1.1794 0.901018035674656 19.196608562462444 1.7621547778055828 0 0 0
226 76 2 -1.1794 1.3487322838627465 17.564948143457194 4.009110438149284 0 0 0
227 76 1 0.5897 1.1000003157517486 18.245449502135102 3.38348753755069 0 0 0
228 76 1 0.5897 0.6763504114673857 17.606936419222237 4.689195438836019 0 0 0
219 73 1 0.5897 3.5414134188102135 15.705921499102189 0.14751584045397095 0 0 0
230 77 1 0.5897 4.30181348184094 18.871855670460057 0.9436726588901077 0 0 0
232 78 2 -1.1794 4.032423925912846 16.93713056179312 3.744227125185386 0 0 0
247 83 2 -1.1794 1.0870262179832593 15.457006490834381 2.379987987604349 0 0 0
234 78 1 0.5897 3.0840046772991734 17.04576287974571 3.816360493179758 0 0 0
249 83 1 0.5897 1.8293971608087374 15.722079716827455 1.8368112921528352 0 0 0
229 77 2 -1.1794 4.677828521302875 18.77850067866227 1.8189847447301613 0 0 0
221 74 1 0.5897 3.9145162731932186 15.116983878034832 3.3320290798945567 0 0 0
217 73 2 -1.1794 2.6355057260110857 16.015357041504224 0.15632469616683503 0 0 0
555 185 1 0.5897 4.296334014829921 18.724775846143608 7.732648577297708 0 0 0
558 186 1 0.5897 4.325711299112823 17.608541564332796 9.88786322596525 0 0 0
559 187 2 -1.1794 1.044239859515057 19.297077949822665 9.024981602958606 0 0 0
241 81 2 -1.1794 2.64207378075386 18.701433654707948 6.811865231443665 0 0 0
242 81 1 0.5897 2.575289371627885 17.753972404583756 6.692333868396279 0 0 0
243 81 1 0.5897 2.050157786132079 18.89389033318669 7.539138080410775 0 0 0
541 181 2 -1.1794 2.346165153378721 15.907274274503552 6.929337391162307 0 0 0
542 181 1 0.5897 1.7422808389508175 15.861595723815771 7.67067792600247 0 0 0
572 191 1 0.5897 1.1054087578925391 16.149556800293006 9.914438000630547 0 0 0
576 192 1 0.5897 4.225637162541823 15.482019318104461 7.291293717665635 0 0 0
571 191 2 -1.1794 0.7874721467021211 15.779156974742286 9.091019863391073 0 0 0
553 185 2 -1.1794 4.663613727848683 18.73590266349143 8.616530861327817 0 0 0
543 181 1 0.5897 1.9830161342877406 15.29826965099946 6.286224380211411 0 0 0
24 8 1 0.5897 2.2372811846031504 19.90087601502016 5.510263998523121 0 -1 0
560 187 1 0.5897 0.1356788282356152 19.189923733031215 8.743019973386456 0 0 0
885 295 1 0.5897 1.4310920217925538 18.744763048395825 14.872007505440989 0 0 0
866 289 1 0.5897 3.450628006266746 15.82254890842247 14.049536462386737 0 0 0
879 293 1 0.5897 4.294789125416605 19.098355708810324 14.56592536769633 0 0 0
867 289 1 0.5897 2.053899407321059 15.603888741825706 14.591612041453011 0 0 0
552 184 1 0.5897 2.4438015139324647 17.417607753179958 11.051979302793885 0 0 0
550 184 2 -1.1794 1.5043233803190215 17.555965548421526 11.173355090053184 0 0 0
565 189 2 -1.1794 2.7746418007263394 18.814741109135362 13.580848218108844 0 0 0
566 189 1 0.5897 2.60443552053621 18.000952065845595 13.106348879215346 0 0 0
567 189 1 0.5897 2.623669015927295 19.505182385290084 12.935223064396848 0 0 0
865 289 2 -1.1794 2.5266659383739136 15.874048306919045 13.80432073975344 0 0 0
556 186 2 -1.1794 4.031468051507552 17.12222459883369 10.658077559799056 0 0 0
877 293 2 -1.1794 4.796215498075517 19.12301349562332 15.380957276304315 0 0 0
551 184 1 0.5897 1.2721124363134415 18.214563245373512 10.518627829752845 0 0 0
557 186 1 0.5897 3.940671756794019 16.219764274027625 10.35195279885417 0 0 0
881 294 1 0.5897 3.1228012301330805 17.06117628993936 17.37719508609128 0 0 0
897 299 1 0.5897 0.9243552852563663 15.86347431510548 16.423052516284027 0 0 0
878 293 1 0.5897 4.547223163507342 18.320841114422635 15.840213321369871 0 0 0
882 294 1 0.5897 4.2371732196015826 16.225506805269028 16.78375076822556 0 0 0
880 294 2 -1.1794 4.061303357202374 17.074839958335147 17.188781679581872 0 0 0
874 292 2 -1.1794 1.2297222895001299 17.129174447285642 17.601542784855088 0 0 0
875 292 1 0.5897 0.7465445984493922 17.352969540551115 18.397012213663775 0 0 0
876 292 1 0.5897 1.0241760858483133 17.835694134125546 16.989221422292044 0 0 0
891 297 1 0.5897 2.425543759586665 19.340309793395356 19.461712372657175 0 0 0
889 297 2 -1.1794 2.5910073093458106 18.691211202357877 20.145542164350793 0 0 0
895 299 2 -1.1794 0.8856720940049148 15.131096224183707 15.807867041288864 0 0 0
218 73 1 0.5897 2.705177765845136 16.96470212558618 20.540897183904946 0 0 -1
884 295 1 0.5897 0.8492803051578313 19.727383299862773 15.866077386090227 0 0 0
883 295 2 -1.1794 0.8295774703037464 18.80399342586091 15.614315633966429 0 0 0
873 291 1 0.5897 5.029679226815755 17.53045127250659 18.792790976509842 0 0 0
69 23 1 0.5897 6.6999981412684955 2.2427669616836803 1.8962838913386213 0 0 0
58 20 2 -1.1794 8.298034839984513 0.7544488472341048 5.062891250230653 0 0 0
68 23 1 0.5897 8.180072906816612 2.3541305075038466 1.597148489370235 0 0 0
67 23 2 -1.1794 7.5632407679328955 2.0591890965487694 2.267144539467188 0 0 0
46 16 2 -1.1794 8.098457557505519 3.9578098232708347 3.965210587330846 0 0 0
47 16 1 0.5897 7.789585323027681 3.2291440751362477 3.426675492104795 0 0 0
48 16 1 0.5897 7.427565860257436 4.0581983430295585 4.640613269262606 0 0 0
273 91 1 0.5897 7.631789839681611 0.11161503554929271 2.1781200719512026 0 1 0
34 12 2 -1.1794 5.347011762868457 2.4769697281356056 0.5159216095175632 0 0 0
9 3 1 0.5897 5.4086805575111105 4.271191926996307 5.039450012211069 0 0 0
41 14 1 0.5897 9.849035930411405 0.903436969442745 3.880819249004191 0 0 0
53 18 1 0.5897 9.824493205130493 3.7959022810465703 3.7342611530526493 0 0 0
39 13 1 0.5897 9.958929488534022 2.5821990153505 0.39200487250393606 0 0 0
37 13 2 -1.1794 9.101691308700964 2.920153853295361 0.132371608813035 0 0 0
8 3 1 0.5897 6.0314025613450815 3.815407983196677 6.341943152183434 0 0 0
391 131 2 -1.1794 7.858928296784598 2.481194185700009 9.102202020521078 0 0 0
393 131 1 0.5897 7.7967449623606555 1.5312024400535693 9.202450510883317 0 0 0
59 20 1 0.5897 8.559684135904872 1.5711453322107205 5.488243730512304 0 0 0
361 121 2 -1.1794 9.221436132375855 2.762793558868511 6.727979681599486 0 0 0
392 131 1 0.5897 8.453985508660207 2.6060635078764056 8.362856804747011 0 0 0
362 121 1 0.5897 9.02005912238829 3.696767222806964 6.6681780465417955 0 0 0
360 120 1 0.5897 5.605086726441102 1.5901299637535447 6.855586947118858 0 0 0
359 120 1 0.5897 6.259193455878625 2.2784314835639785 8.034791116725948 0 0 0
358 120 2 -1.1794 5.597995376444592 2.4070183541039736 7.3546041286909345 0 0 0
7 3 2 -1.1794 6.1447613960922585 4.4419383797184375 5.627151692029994 0 0 0
28 10 2 -1.1794 5.718294776418823 0.2876061873771081 5.644525970600053 0 0 0
60 20 1 0.5897 8.59653117937632 0.0671662129389613 5.65862782450313 0 0 0
29 10 1 0.5897 6.649703540611171 0.3556570629806969 5.433974964042017 0 0 0
352 118 2 -1.1794 6.059906805370968 0.8890224562511345 12.028147245379595 0 0 0
353 118 1 0.5897 6.9906693616893865 0.9850051535237985 11.825748979489909 0 0 0
370 124 2 -1.1794 8.282224382004289 4.640058624706726 10.782533787809502 0 0 0
386 129 1 0.5897 9.276361792726725 4.581494959457604 13.626601904039727 0 0 0
372 124 1 0.5897 7.655697617939686 4.7436826400203405 11.498830063350526 0 0 0
685 229 2 -1.1794 9.132599620165593 2.7438163304140755 13.698661588956199 0 0 0
382 128 2 -1.1794 8.821627891732117 0.7092984744544285 11.826692948940769 0 0 0
383 128 1 0.5897 8.893175812322442 1.4164298366414616 12.467922629759268 0 0 0
384 128 1 0.5897 9.582520555578709 0.8238977776175751 11.257241466786812 0 0 0
354 118 1 0.5897 5.9131747067897455 1.4784451220447814 12.76798736402293 0 0 0
686 229 1 0.5897 8.62823616558112 2.572251363228912 14.493963853144042 0 0 0
684 228 1 0.5897 5.904956353530718 3.595727416212324 13.510914697751844 0 0 0
682 228 2 -1.1794 5.753518391940563 2.769286158280049 13.96965719155626 0 0 0
717 239 1 0.5897 6.827093980984538 2.4942982108220044 15.367680649532916 0 0 0
332 111 1 0.5897 5.56234246473501 4.813573819175526 12.07680799350937 0 0 0
371 124 1 0.5897 8.063554457800926 3.793356587716603 10.393082579408802 0 0 0
657 219 1 0.5897 6.767505477619293 4.697183642391564 19.05194871279105 0 0 0
710 237 1 0.5897 9.155913618788519 4.740292739789503 20.237156579748575 0 0 0
677 226 1 0.5897 5.356219397769067 0.8190672622289034 18.31055680275529 0 0 0
35 12 1 0.5897 5.644961156567867 1.807590239510506 20.385963292036887 0 0 -1
676 226 2 -1.1794 5.9288615377881575 0.5639274124428764 19.03397550921666 0 0 0
38 13 1 0.5897 8.844191277324475 2.3753821344903994 19.874661708047178 0 0 -1
694 232 2 -1.1794 8.011666537745345 4.463759293664134 17.704631986684813 0 0 0
695 232 1 0.5897 7.802876515459225 3.7005732834188505 17.165811695304974 0 0 0
716 239 1 0.5897 7.555139482405001 1.3657565818568895 16.06672423778239 0 0 0
706 236 2 -1.1794 8.533006984602782 0.9583986554569275 18.683232277974 0 0 0
708 236 1 0.5897 7.610593247763438 0.7958901288056209 18.485140274730398 0 0 0
655 219 2 -1.1794 5.947404871415767 4.719712127873537 19.545257514532253 0 0 0
715 239 2 -1.1794 7.573653191377797 2.31434921282512 15.939213944658032 0 0 0
656 219 1 0.5897 5.268974003958663 4.552147420932525 18.891024725173967 0 0 0
707 236 1 0.5897 8.765004518539184 0.2809904052988948 19.318542476912732 0 0 0
702 234 1 0.5897 9.806432019692904 4.310013527438913 17.48278256859507 0 0 0
689 230 1 0.5897 9.840913413215663 1.185966683674589 17.337160865537946 0 0 0
36 12 1 0.5897 5.552460593267616 3.3073039080696858 20.5722113881752 0 0 -1
143 48 1 0.5897 5.834113326895894 9.052894084564798 1.2499012687902527 0 0 0
176 59 1 0.5897 7.422997267002192 7.830723324860701 2.4106434047911964 0 0 0
142 48 2 -1.1794 5.162313453752497 9.17837211913755 0.5796097437258345 0 0 0
711 237 1 0.5897 8.782438734797312 5.815194962719893 0.7497051915280489 0 0 1
175 59 2 -1.1794 7.221897398469838 8.756686556034776 2.2743207166034383 0 0 0
55 19 2 -1.1794 7.615164298245197 6.05809675788217 2.186852520686027 0 0 0
56 19 1 0.5897 6.764575860725372 5.845280927366402 1.8025849859335765 0 0 0
177 59 1 0.5897 7.825187744290833 9.03431026196817 1.5848814726595417 0 0 0
166 56 2 -1.1794 8.615788494626369 7.674990147291438 5.056878243280576 0 0 0
57 19 1 0.5897 7.77293820407471 5.35971067243179 2.8222251947033308 0 0 0
138 46 1 0.5897 6.871078893628287 7.418980514124037 5.186853627078418 0 0 0
147 49 1 0.5897 9.949505604714064 9.336045733312783 0.5650115544537686 0 0 0
145 49 2 -1.1794 9.02849530784668 9.530087482043946 0.39013359144162313 0 0 0
338 113 1 0.5897 5.602847980968908 5.689919755873414 8.359923867485158 0 0 0
501 167 1 0.5897 6.912328848161179 8.909455990839696 8.702561607420758 0 0 0
380 127 1 0.5897 7.450966312493473 6.997736380075809 8.952475350533641 0 0 0
61 21 2 -1.1794 9.113430412656834 5.573144684077424 6.677079443515908 0 0 0
499 167 2 -1.1794 7.758390866195406 8.768984516605462 9.127887921246742 0 0 0
62 21 1 0.5897 8.385369756276193 5.801056950028006 7.255343548589049 0 0 0
167 56 1 0.5897 8.79068648789252 6.907145324764117 5.601103697521678 0 0 0
467 156 1 0.5897 5.605552695889651 8.215122876815466 6.752780875032525 0 0 0
500 167 1 0.5897 7.840842608365422 9.496708138167973 9.744302136079332 0 0 0
470 157 1 0.5897 8.686555822486154 9.308989278082224 7.611444469866788 0 0 0
379 127 2 -1.1794 7.305382644800253 6.088927635212035 8.689249049634109 0 0 0
466 156 2 -1.1794 5.463081560113018 8.83823705314251 7.465339254463477 0 0 0
469 157 2 -1.1794 9.152290549228352 9.644269817287231 6.845280505892644 0 0 0
168 56 1 0.5897 8.78355237696821 8.420854164426025 5.632964543136762 0 0 0
137 46 1 0.5897 6.062055511938413 6.172633701750479 5.477533124366596 0 0 0
381 127 1 0.5897 7.597626671351285 5.571824447357425 9.439928469066341 0 0 0
63 21 1 0.5897 9.89104694829958 5.643148299155405 7.231005057913496 0 0 0
136 46 2 -1.1794 5.978917300343412 7.119303529778696 5.362089506216797 0 0 0
491 164 1 0.5897 9.358968979363276 7.762552483534611 11.003220865767236 0 0 0
794 265 1 0.5897 9.127823691142579 8.795262336444315 13.35107400179849 0 0 0
790 264 2 -1.1794 5.346970244661004 9.409062495479859 14.029869181624582 0 0 0
791 264 1 0.5897 5.9385377515234135 9.270141351485318 14.769528369829803 0 0 0
333 111 1 0.5897 6.271043996489503 6.015312424737963 12.664967963089081 0 0 0
793 265 2 -1.1794 9.238126908371733 9.294292853034111 14.160442763196922 0 0 0
462 154 1 0.5897 5.54982113479603 7.898299252325548 11.36629915869113 0 0 0
387 129 1 0.5897 9.191134394233927 5.886365036223259 12.863527146599706 0 0 0
460 154 2 -1.1794 6.243135809780951 7.835193772012785 12.023337132598284 0 0 0
461 154 1 0.5897 5.9347041808692556 8.376276722556375 12.750255523118396 0 0 0
492 164 1 0.5897 8.015687274522966 7.7848600218323325 11.701437224132519 0 0 0
490 164 2 -1.1794 8.955047996113041 7.707975586302868 11.869328985986279 0 0 0
385 129 2 -1.1794 9.313764823672694 5.530849051700385 13.74376915182246 0 0 0
705 235 1 0.5897 7.945429793101827 5.8963007885009615 14.909264364967438 0 0 0
824 275 1 0.5897 8.110933425110053 9.01580190378342 15.373884109754112 0 0 0
331 111 2 -1.1794 6.304662878602652 5.059270671069607 12.629082608693164 0 0 0
704 235 1 0.5897 6.491820395304329 5.90596669258589 15.332874654313745 0 0 0
814 272 2 -1.1794 8.658901986002265 7.816791431256999 18.887273116214512 0 0 0
786 262 1 0.5897 6.856827776863055 7.699748431834373 18.940401824785127 0 0 0
815 272 1 0.5897 8.819564367678137 7.02203677365801 19.396129114199468 0 0 0
825 275 1 0.5897 7.271344856764544 8.009422404326976 16.131870588996 0 0 0
785 262 1 0.5897 6.048539512257259 6.446326622756246 19.20112256962928 0 0 0
823 275 2 -1.1794 7.429196453018119 8.949372677244188 16.04260374520303 0 0 0
816 272 1 0.5897 8.90144616018515 8.531790223822899 19.475758297725342 0 0 0
784 262 2 -1.1794 5.957218417696233 7.378725411095531 19.004423034589784 0 0 0
703 235 2 -1.1794 7.3691021530707115 6.145894560966115 15.63168456419652 0 0 0
709 237 2 -1.1794 9.26975781801583 5.672171781051214 20.424390546349674 0 0 0
144 48 1 0.5897 5.282011792481145 8.44244845101657 20.46532827602209 0 0 -1
696 232 1 0.5897 7.758922628538993 5.2140004672670175 17.166456351486335 0 0 0
797 266 1 0.5897 9.977728442077089 7.766813572697267 17.519193666455447 0 0 0
154 52 2 -1.1794 8.148857127405217 10.76808794222111 3.942965061880048 0 0 0
276 92 1 0.5897 9.122402819659905 14.047929622456929 4.370896983191722 0 0 0
156 52 1 0.5897 9.095146075751366 10.826106798105265 3.8100956399438584 0 0 0
163 55 2 -1.1794 7.397611630715872 12.837653729609427 2.243258188419456 0 0 0
164 55 1 0.5897 6.468790263829403 12.65686872833071 2.098010965017412 0 0 0
165 55 1 0.5897 7.684068866434483 12.15199817263862 2.846730075655958 0 0 0
819 273 1 0.5897 8.462418464472306 12.414739856018993 0.7759509047673282 0 0 1
246 82 1 0.5897 5.204226207115411 13.758739408453748 4.6111408223638986 0 0 0
285 95 1 0.5897 7.7199273256483245 14.556682387708527 1.9950682359442182 0 0 0