LAMMPS data file via write_data, version 30 Jul 2021, timestep = 4250000

1296 atoms
2 atom types
864 bonds
1 bond types
432 angles
1 angle types

-10.473821208325328 12.453821208325328 xlo xhi
-9.18797597459505 12.17797397459505 ylo yhi
0.24716235226686933 21.61283664773213 zlo zhi
-9.155670987741011 1.8226758730880765 2.795643043038753 xy xz yz

Masses

1 1.008
2 15.999

Pair Coeffs # lj/cut/tip4p/long/omp

1 0 0
2 0.21084 3.1668

Bond Coeffs # harmonic/omp

1 450 0.9572

Angle Coeffs # harmonic/omp

1 55 104.52

Atoms # full

282 94 1 0.5897 -10.362818663969465 -4.011097800069916 1.6049617858242924 1 1 0
280 94 2 -1.1794 -9.551482470188983 -4.508659626275135 1.7066001915258373 1 1 0
270 90 1 0.5897 -8.334400837388454 -7.471803719414747 2.2802337317367347 1 1 0
163 55 2 -1.1794 -6.997270449600599 -7.858217602736733 1.141813726205116 1 1 0
164 55 1 0.5897 -6.245101631945715 -8.32047306882393 1.5115889617367757 1 1 0
269 90 1 0.5897 -9.138236807075781 -6.197625892000145 2.428815629435751 1 1 0
268 90 2 -1.1794 -9.050421184926899 -7.082750560481514 2.7823951329632246 1 1 0
299 100 1 0.5897 -6.565732658135707 -7.850691649979064 4.215984390738406 1 1 0
324 108 1 0.5897 -7.0251723541921836 -4.259508838365432 3.8011132066881035 1 1 0
73 25 2 -1.1794 -8.351152013839652 -3.771452726147186 4.933453822703325 1 0 0
314 105 1 0.5897 -8.776171758996526 -6.7245290358788505 4.499299466196912 1 1 0
298 100 2 -1.1794 -5.933428938288868 -7.13211635244775 4.220615787873404 1 1 0
59 20 1 0.5897 -13.440761905434062 -0.7329191902548278 3.4708869089378487 1 0 0
261 87 1 0.5897 -6.656961470882455 -4.836820013888255 1.4102580364036992 1 1 0
75 25 1 0.5897 -9.155309525633239 -3.47255475931033 4.508990076983105 1 0 0
275 92 1 0.5897 -10.303538821541832 -8.087519348822923 3.49755733007599 1 1 0
281 94 1 0.5897 -8.866851121311708 -3.84220189768763 1.7640098820637884 1 1 0
44 15 1 0.5897 -9.725083214694106 0.9802233784552179 0.5802069413308919 1 0 0
84 28 1 0.5897 -8.046816634874428 -0.6343004551143956 3.96633502005622 1 0 0
300 100 1 0.5897 -5.079455320424558 -7.563748986915593 4.1963552050379 1 1 0
315 105 1 0.5897 -8.707174856133053 -5.52852350525688 5.424896862642698 1 1 0
260 87 1 0.5897 -6.645017479494584 -6.157800320173417 0.6708335008733923 1 1 0
323 108 1 0.5897 -6.193950487847018 -5.477985769111722 3.460281821210655 1 1 0
69 23 1 0.5897 -10.985906491143835 -2.4591740517884277 3.333961224378696 1 0 0
313 105 2 -1.1794 -8.769240510044163 -6.483681187428134 5.425707911499932 1 1 0
67 23 2 -1.1794 -10.630402715402848 -2.2262754088411674 4.1916591061193404 1 0 0
271 91 2 -1.1794 -9.965381250924814 -0.729993851391681 1.078729071912849 1 1 0
82 28 2 -1.1794 -8.91070611859773 -0.23027059977096265 4.047724641722704 1 0 0
258 86 1 0.5897 -12.3425058494819 -2.6994981048316093 1.1865161471091668 1 1 0
256 86 2 -1.1794 -11.85347103421666 -3.1361342941034778 1.883940947811965 1 1 0
83 28 1 0.5897 -9.515067320292651 -0.968842421761936 4.121472899232712 1 0 0
272 91 1 0.5897 -9.171627406155125 -1.1637333246040278 1.3917671669322207 1 1 0
107 36 1 0.5897 -9.353959757923691 1.4791595941607376 3.4538068604855128 1 0 0
52 18 2 -1.1794 -12.035413776926585 0.3153901332872113 2.652287493607696 1 0 0
98 33 1 0.5897 -11.589850787882416 0.5498098489928349 4.41405127117663 1 0 0
301 101 2 -1.1794 -7.814326636081719 -2.3971181160780715 1.6926615108480731 1 1 0
53 18 1 0.5897 -12.208741338369531 1.1430319830609417 2.203792616183483 1 0 0
54 18 1 0.5897 -11.259579222887808 -0.03624322565425153 2.2156689722462453 1 0 0
68 23 1 0.5897 -11.259490040924424 -2.5848591424373364 4.817659949303438 1 0 0
322 108 2 -1.1794 -6.360204382475255 -4.57517664618529 3.1892309178397196 1 1 0
97 33 2 -1.1794 -11.703467079148655 0.6511237468918534 5.3590982907069975 1 0 0
99 33 1 0.5897 -11.50010608135964 1.5710700236025126 5.528025788698436 1 0 0
273 91 1 0.5897 -10.329301410158584 -1.3337097485747638 0.43116852406126727 1 1 0
257 86 1 0.5897 -12.517538988571102 -3.6168585307761827 2.378020629786865 1 1 0
417 139 1 0.5897 -8.91956446391762 0.914977343040988 5.556745564361833 1 0 0
259 87 2 -1.1794 -6.5618692184609735 -5.213888154968798 0.5355799865188289 1 1 0
165 55 1 0.5897 -7.263777062431753 -8.393075756073904 0.39404061967833404 1 1 0
74 25 1 0.5897 -8.159592238289596 -3.0979137903917753 5.5860653278044845 1 0 0
429 143 1 0.5897 -6.292078635435819 -7.176494693793131 8.6084108795913 1 0 0
428 143 1 0.5897 -6.520156403925124 -7.280415294594557 10.10145989519631 1 0 0
427 143 2 -1.1794 -5.910345547434883 -6.931549147998618 9.45135138491286 1 0 0
618 206 1 0.5897 -7.66688441364896 -7.3462719576636015 6.576935189414904 1 1 0
420 140 1 0.5897 -8.993943852455 -6.609230528294523 9.940607366579536 1 0 0
414 138 1 0.5897 -6.753899457310805 -4.8264681841636214 7.544922251465282 1 0 0
413 138 1 0.5897 -7.616846949437216 -3.6078266237547387 7.793927547458706 1 0 0
412 138 2 -1.1794 -7.452847055062908 -4.496460388515601 8.109535885974992 1 0 0
350 117 1 0.5897 -7.137995474490602 -4.144036771188851 9.990431958628582 0 0 0
419 140 1 0.5897 -8.732741658369722 -5.502167425209581 8.941601909114775 1 0 0
418 140 2 -1.1794 -9.413023639467594 -6.103709967354141 9.244166187444355 1 0 0
627 209 1 0.5897 -10.197109673747743 -6.886218229005452 6.414498744179082 1 1 0
633 211 1 0.5897 -5.799438711433637 -5.944657978395238 5.763400543998168 1 1 0
349 117 2 -1.1794 -7.148452114099707 -3.7388034276685786 10.857588118369538 0 0 0
351 117 1 0.5897 -6.973682596988457 -2.812458939304072 10.691698165602979 0 0 0
426 142 1 0.5897 -8.740622082086475 -1.6157763514589414 7.123842126745848 1 0 0
522 174 1 0.5897 -9.899243302241134 2.0353878051832037 7.5685336280382 1 0 0
435 145 1 0.5897 -7.306631758869127 -0.8529806248602441 9.734317717410457 0 0 0
402 134 1 0.5897 -10.8734921605363 -0.4959534499843965 6.583534500371433 1 0 0
401 134 1 0.5897 -11.105592543893367 -1.369409814828165 7.798063640826893 1 0 0
411 137 1 0.5897 -13.201307595154136 0.4179707930402685 6.35671966388956 1 0 0
400 134 2 -1.1794 -10.415089618872196 -0.9256536307196352 7.3056397413510235 1 0 0
537 179 1 0.5897 -9.378665899102709 -0.1798953754853585 8.673846019984431 1 0 0
536 179 1 0.5897 -9.604281143067936 -0.17662030111453753 10.170879435925654 1 0 0
535 179 2 -1.1794 -8.936204522974254 -0.011020032242457845 9.505691221482795 1 0 0
528 176 1 0.5897 -12.24614896969349 0.5024874784889537 9.765587447773203 1 0 0
424 142 2 -1.1794 -7.861504134510453 -1.9773969792825303 7.011813139083116 1 0 0
527 176 1 0.5897 -11.686267313603901 1.537470593619604 8.813132827525472 1 0 0
526 176 2 -1.1794 -12.509507254965182 1.2034203713914309 9.169324572290863 1 0 0
616 206 2 -1.1794 -7.265053773958561 -7.93956205975227 7.211551057246247 1 1 0
410 137 1 0.5897 -13.489470973328167 0.5752935854870813 7.834635620570045 1 0 0
425 142 1 0.5897 -7.285612036053314 -1.2128544444324278 7.012730841811766 1 0 0
415 139 2 -1.1794 -8.665688215412388 1.4608501064168742 6.300937525249704 1 0 0
520 174 2 -1.1794 -10.370369920991818 2.5109808888460954 8.252711935528653 1 0 0
327 109 1 0.5897 -4.437612915651966 -7.8801757714368055 9.882016273240275 0 0 0
835 279 2 -1.1794 -11.223666000546862 -0.5694990509321567 10.920616316915478 1 0 0
652 218 2 -1.1794 -5.666375574331365 -5.396171171430835 12.54269208580165 0 0 0
780 260 1 0.5897 -7.4055492703991685 -3.849056497418001 15.271975915589907 0 0 0
779 260 1 0.5897 -7.23226191429335 -2.9710731367009995 14.05091469271648 0 0 0
778 260 2 -1.1794 -7.900565810121569 -3.3874002408800656 14.595192463855938 0 0 0
768 256 1 0.5897 -9.531533557631153 -2.7171618914142117 14.770769189833386 0 0 0
654 218 1 0.5897 -6.066137893060057 -4.712500021535405 12.005133127337741 0 0 0
653 218 1 0.5897 -6.381007645745991 -5.718019666970627 13.092164524564721 0 0 0
661 221 2 -1.1794 -9.327477476160842 -4.4876748006231875 12.487336231968102 0 0 0
682 228 2 -1.1794 -7.729279295840506 -6.681800914299055 13.871643331909928 0 0 0
684 228 1 0.5897 -8.34944420084037 -6.367043513021173 14.529336675251491 0 0 0
662 221 1 0.5897 -8.89634918087401 -4.262681520121399 13.311817054507367 0 0 0
663 221 1 0.5897 -8.714433984856996 -4.201803055865231 11.810078032516532 0 0 0
740 247 1 0.5897 -10.916276273268373 -3.560596323553737 12.212914468315363 1 0 0
766 256 2 -1.1794 -10.398483811924375 -2.3246111192449144 14.87308332078705 0 0 0
788 263 1 0.5897 -4.869337854993804 -4.459653243506686 15.361360178449415 0 0 0
769 257 2 -1.1794 -12.395810725757036 2.6858602904031734 12.480709869650164 0 0 0
729 243 1 0.5897 -7.904401117104348 -7.08894263772525 12.119021625040936 1 0 0
771 257 1 0.5897 -11.69070561003595 2.86218628070341 11.857853125792591 0 0 0
770 257 1 0.5897 -12.011978601710062 2.8735993344945427 13.337267538249256 0 0 0
836 279 1 0.5897 -11.382961636695713 -1.5018008361561783 11.067630882808452 1 0 0
866 289 1 0.5897 -12.209969056380247 1.786341836289802 16.091227727071956 0 0 0
888 296 1 0.5897 -10.53908267456472 3.181853547931693 15.106060920996416 0 0 0
727 243 2 -1.1794 -8.01203190460901 -7.437455744278606 11.234015086748617 1 0 0
896 299 1 0.5897 -7.934428961814236 2.3826111061297386 15.599443089414718 0 0 0
762 254 1 0.5897 -9.10145197119129 2.134686290290551 11.993045157586094 0 0 0
792 264 1 0.5897 -11.436539991558991 0.5182397427137158 14.128637394021583 0 0 0
837 279 1 0.5897 -11.138345427602149 -0.19915223608604293 11.799164754846636 1 0 0
761 254 1 0.5897 -9.387255605528406 1.1436054859968774 13.101164365288545 0 0 0
760 254 2 -1.1794 -8.686257900251633 1.67368988822086 12.721955343323161 0 0 0
791 264 1 0.5897 -10.643940089662697 -0.7567651954715142 13.933924841759927 0 0 0
790 264 2 -1.1794 -10.80349198974285 0.10240411779281366 13.543351850135096 0 0 0
865 289 2 -1.1794 -12.574584780965449 1.1754467833441868 15.450830342829866 0 0 0
767 256 1 0.5897 -10.989175921212153 -3.0707560642555976 14.97569176308621 0 0 0
1151 384 1 0.5897 -6.130271201660317 -5.166312662313386 19.43745462226287 0 0 0
1152 384 1 0.5897 -7.043131672172201 -3.96076661935067 19.508820096332478 0 0 0
1225 409 2 -1.1794 -8.071797883874687 -3.294827300001245 20.826169979791242 0 0 0
1227 409 1 0.5897 -8.966285583764545 -2.9982030490045615 20.658630513750612 0 0 0
1109 370 1 0.5897 -8.7236198294078 -3.3336633609280693 17.782206987398066 0 0 0
1108 370 2 -1.1794 -9.348825838171631 -4.057677260014685 17.749000414566048 0 0 0
1089 363 1 0.5897 -6.386640884825484 -4.586608077528407 17.304464147286367 0 0 0
1150 384 2 -1.1794 -6.319249279188295 -4.333347091302503 19.005441250290673 0 0 0
1248 416 1 0.5897 -5.696387343286029 -1.4774127988586194 20.606372329517708 0 0 0
1218 406 1 0.5897 -13.16680673186708 3.313127031526939 17.803643432461673 0 0 0
1219 407 2 -1.1794 -10.371732332278373 -1.833318313181893 20.1435183659273 0 0 0
1129 377 2 -1.1794 -7.528629481813111 -1.8728028975670004 17.749937421104292 0 0 0
1217 406 1 0.5897 -11.66818070459987 3.5255826970036193 17.830512833895142 0 0 0
1088 363 1 0.5897 -6.550641952028432 -5.74843716811172 16.34781715883855 0 0 0
1229 410 1 0.5897 -7.855886374258435 3.767584179300263 18.297005411393393 0 0 0
1097 366 1 0.5897 -8.916359805107126 -5.687021523690641 18.489952606045193 0 0 0
1250 417 1 0.5897 -11.609014973150616 0.66045866866612 20.417359084926332 0 0 0
1130 377 1 0.5897 -7.1572513561354185 -1.570587566665722 18.57879750262654 0 0 0
1101 367 1 0.5897 -10.06594448392543 -1.2351403321253684 16.33430964415945 0 0 0
1110 370 1 0.5897 -10.20719096489837 -3.6346128808852143 17.768730003577982 0 0 0
1141 381 2 -1.1794 -8.268031006943714 -6.013391379979363 21.503238618179665 0 0 0
1131 377 1 0.5897 -6.829525921560974 -1.737707276385688 17.110230399057528 0 0 0
1195 399 2 -1.1794 -9.569855775846351 2.0280040883793973 16.31629911927849 0 0 0
1246 416 2 -1.1794 -6.15881788446245 -0.9135558104644641 19.98635737255368 0 0 0
1249 417 2 -1.1794 -11.50816733686716 0.9368965899592201 21.328237142984275 0 0 0
1205 402 1 0.5897 -12.111632406269589 1.1764368556420823 18.398500274192703 0 0 0
1143 381 1 0.5897 -8.265638120198194 -5.059573296171424 21.423235819349834 0 0 0
1142 381 1 0.5897 -8.444252433571023 -6.328155511960505 20.61658797951991 0 0 0
1204 402 2 -1.1794 -11.874810948447502 0.2812581130077003 18.640869527249574 0 0 0
1216 406 2 -1.1794 -12.334982741442474 2.839616920923115 17.79878244024921 0 0 0
1206 402 1 0.5897 -11.120408427513526 0.0748478219666655 18.08906543510511 0 0 0
1100 367 1 0.5897 -8.97650104515566 -0.9435056634394368 17.344223000314496 0 0 0
1234 412 2 -1.1794 -8.557645472461193 0.3077383464667278 20.273898453625034 0 0 0
1009 337 2 -1.1794 -10.978131710071901 3.476748185051383 20.74878989751306 0 -1 0
1260 420 1 0.5897 -9.759665177694554 2.9742319171651275 19.53665274006359 0 0 0
1259 420 1 0.5897 -8.880671113160759 1.752472657518588 19.374084743286502 0 0 0
1258 420 2 -1.1794 -9.07616921596546 2.602228921034543 18.9792788814157 0 0 0
1099 367 2 -1.1794 -9.830706984089547 -0.6350407173506039 17.041979086821435 0 0 0
1197 399 1 0.5897 -9.428799872368808 2.3708999112939395 17.19880085006035 0 0 0
1236 412 1 0.5897 -7.728092294911235 -0.16633585223423708 20.330998723269705 0 0 0
1235 412 1 0.5897 -9.227368073598418 -0.36459362066838885 20.398877701415635 0 0 0
1011 337 1 0.5897 -11.823447196183382 3.775974535345922 20.414009737761443 0 -1 0
1121 374 1 0.5897 -4.837641018887899 -3.4747274485032307 18.42032198764573 0 0 0
1251 417 1 0.5897 -11.172717456592338 1.8315824065170272 21.271767244329126 0 0 0
1096 366 2 -1.1794 -8.717154528753275 -6.541279383085037 18.873013074194844 0 0 0
1087 363 2 -1.1794 -6.3529155877516885 -4.812298723892403 16.374833936337264 0 0 0
1226 409 1 0.5897 -7.736359891701806 -2.686004249873651 21.484246849805533 0 0 0
1196 399 1 0.5897 -9.624010231987723 1.0795405651286725 16.433181966548688 0 0 0
1221 407 1 0.5897 -10.725059153447202 -1.9846046181160801 19.266855825273982 0 0 0
1010 337 1 0.5897 -10.74811499903014 4.11466611071179 21.424369395837843 0 -1 0
758 253 1 0.5897 -9.559662900775546 -5.202192292216106 16.372963215089985 0 0 0
40 14 2 -1.1794 -14.824882494940749 3.9054895445150155 2.062203458114065 1 0 0
177 59 1 0.5897 -13.838874149693998 4.575524789435379 3.4297291890731194 1 0 0
42 14 1 0.5897 -15.322203259533008 4.429729290703355 1.434475611372859 1 0 0
55 19 2 -1.1794 -13.148882680673442 6.1952144408603385 0.7815036301780487 1 0 0
56 19 1 0.5897 -12.366580008780058 5.751316160440622 1.108804836685328 1 0 0
66 22 1 0.5897 -13.423864689747244 3.0448164827597015 1.4855205558260451 1 0 0
65 22 1 0.5897 -11.957408585585698 3.4053665732141454 1.3794386787121742 1 0 0
64 22 2 -1.1794 -12.558081723579761 2.660835497177354 1.3471324518559944 1 0 0
191 64 1 0.5897 -12.488955971551988 6.358919098987373 4.1121712413529625 1 0 0
183 61 1 0.5897 -11.882143633242407 3.697543024008773 4.65780777678695 1 0 0
181 61 2 -1.1794 -11.041237837938601 3.3660797069452446 4.972736267161315 1 0 0
176 59 1 0.5897 -14.103339190951345 4.613771342902568 4.919903473253006 1 0 0
175 59 2 -1.1794 -13.406916461100664 4.719254240586171 4.271759560824522 1 0 0
108 36 1 0.5897 -9.976517170187424 2.8328163090784297 3.7217957557207493 1 0 0
85 29 2 -1.1794 -10.933577078899607 4.879707955385351 1.594613747318035 1 0 0
190 64 2 -1.1794 -11.843515425704704 7.0524915918199 3.976012760975462 1 0 0
162 54 1 0.5897 -14.345510688247844 6.712234908792203 2.051643091747785 1 0 0
215 72 1 0.5897 -12.158768339001968 8.67572785518128 3.2565811310612447 1 0 0
152 51 1 0.5897 -12.702719721263726 7.905223884140083 0.467313116192547 1 0 0
106 36 2 -1.1794 -9.338052112212143 2.3906989548711604 3.1622254621516186 1 0 0
41 14 1 0.5897 -15.459162596920276 3.2758012214128662 2.404788974537213 1 0 0
160 54 2 -1.1794 -14.939350233793434 7.053765078651212 2.720186515362359 1 0 0
192 64 1 0.5897 -11.002445675909458 6.596223033852155 3.951807263994461 1 0 0
151 51 2 -1.1794 -12.676730576962747 8.852551142482929 0.33287964611906706 1 0 0
153 51 1 0.5897 -12.584630299746522 9.217409688048674 1.2130389407924378 1 0 0
207 69 1 0.5897 -14.533546166282822 8.55894760489045 5.373820378464023 1 0 0
148 50 2 -1.1794 -17.98096456027516 10.925772613629837 2.007132100334454 1 0 0
150 50 1 0.5897 -18.390391964239686 11.516513281621224 1.3749991639222658 1 0 0
174 58 1 0.5897 -16.44176111248937 9.936173517104093 1.5253782359732608 1 0 0
173 58 1 0.5897 -14.96593140245859 10.25237244227216 1.6423765128178636 1 0 0
172 58 2 -1.1794 -15.576213121701961 9.528085239172215 1.5039921024939542 1 0 0
161 54 1 0.5897 -15.24691037352518 7.887520210782297 2.3646186159548024 1 0 0
289 97 2 -1.1794 -14.516395553940258 10.358832356337045 4.9422650475675605 1 0 0
216 72 1 0.5897 -13.079514190709386 9.799767036310163 3.6815017311638396 1 0 0
291 97 1 0.5897 -15.24898893941553 10.875492078732902 4.606797486413966 1 0 0
283 95 2 -1.1794 -16.566296585503018 11.852465857050207 4.176877795714599 1 0 0
284 95 1 0.5897 -17.240709325945556 11.805054117521427 4.85448103930306 1 0 0
285 95 1 0.5897 -16.976501512232236 11.467218001882019 3.4025546085685967 1 0 0
205 69 2 -1.1794 -14.491817405485595 7.604997066987517 5.440264907036119 1 0 0
206 69 1 0.5897 -14.57739845491809 7.2975859880971665 4.53779035205 1 0 0
193 65 2 -1.1794 -14.114358899187502 11.882859772573417 1.757257480419167 1 0 0
43 15 2 -1.1794 -9.502311150074203 1.8984550604993995 0.42723112281637743 1 0 0
167 56 1 0.5897 -16.331420410394415 6.179605653714098 3.528799326909489 1 0 0
214 72 2 -1.1794 -12.49181119620453 9.528236463704483 2.976433668369391 1 0 0
525 175 1 0.5897 -11.748829369326234 8.203692857081576 5.423756280518894 1 0 0
86 29 1 0.5897 -10.597615926426881 4.99147488168858 2.483942547832031 1 0 0
194 65 1 0.5897 -13.652845991649652 12.199405420659135 2.5338265575215067 1 0 0
508 170 2 -1.1794 -13.201123975218422 6.221491732624983 7.32370559417256 1 0 0
645 215 1 0.5897 -12.244059403747158 6.831567899848862 8.81925852667975 1 0 0
644 215 1 0.5897 -12.426129355807763 7.02564039698675 10.309634826336369 1 0 0
643 215 2 -1.1794 -11.773622296829886 7.088937290943354 9.61216762544425 1 0 0
509 170 1 0.5897 -13.955360385440908 5.7968514427923985 7.732358899770595 1 0 0
543 181 1 0.5897 -10.35549773099925 6.081270467471624 9.91159307236613 0 0 0
532 178 2 -1.1794 -10.790461620547868 5.009441595439055 7.091172814651834 1 0 0
521 174 1 0.5897 -10.483777880084187 3.39254536030616 7.89752344408849 1 0 0
510 170 1 0.5897 -13.573908671823581 6.734918398974719 6.607022857097002 1 0 0
534 178 1 0.5897 -11.67906634310394 5.339935434119239 7.222793804569488 1 0 0
565 189 2 -1.1794 -13.255136493030998 10.441749721656263 10.719571070685918 0 0 0
533 178 1 0.5897 -10.233332161761428 5.7846403900063805 7.160854968150174 1 0 0
519 173 1 0.5897 -16.097377809731384 7.165934419095729 6.382766288605654 1 0 0
182 61 1 0.5897 -10.76208905558732 4.004648824588841 5.628904239851418 1 0 0
636 212 1 0.5897 -14.953813753426939 7.820767453884473 9.877508690872158 1 0 0
518 173 1 0.5897 -16.38663456809109 7.513420533203524 7.82762374677581 1 0 0
642 214 1 0.5897 -14.821532429259923 12.571640213733806 6.959398516051981 1 0 0
567 189 1 0.5897 -13.083675418616401 11.380366344866465 10.643551318536755 0 0 0
641 214 1 0.5897 -13.349227718423679 12.911419565467567 6.8666113117481755 1 0 0
630 210 1 0.5897 -12.610579387326881 9.21016664714862 7.549337074840043 1 0 0
635 212 1 0.5897 -14.715851852932252 8.705822348831846 8.672549470596701 1 0 0
629 210 1 0.5897 -13.337631585715926 10.531547231606146 7.680136653890539 1 0 0
566 189 1 0.5897 -13.074685908712997 10.09333131474124 9.84645985284071 0 0 0
628 210 2 -1.1794 -13.268265229895091 9.663266257361238 8.076943825773975 1 0 0
634 212 2 -1.1794 -15.413305667172843 8.326820497728013 9.207448629673058 1 0 0
640 214 2 -1.1794 -13.952295232590524 12.171504860928719 6.937421863534822 1 0 0
617 206 1 0.5897 -17.159158322944702 13.056819583399227 7.695620165564486 1 0 0
458 153 1 0.5897 -10.228212810607483 2.8360652596371256 10.00034801165617 0 0 0
457 153 2 -1.1794 -10.263518073129429 3.1743480111935245 10.895112541222606 0 0 0
459 153 1 0.5897 -10.047710148902702 4.102916845390409 10.809300138164659 0 0 0
290 97 1 0.5897 -14.22355987235164 10.83425019051713 5.719754053142761 1 0 0
945 315 1 0.5897 -14.069899058406328 7.0571365799296135 11.97411435092458 1 0 0
900 300 1 0.5897 -14.566537620075547 7.804579586263442 14.24722369734207 0 0 0
899 300 1 0.5897 -13.787232655660901 6.517637265810286 14.079234797893198 0 0 0
898 300 2 -1.1794 -13.838334977604202 7.418689107066003 13.76037900829684 0 0 0
874 292 2 -1.1794 -13.473096456320778 4.910434142800238 14.726682865793673 0 0 0
848 283 1 0.5897 -13.749255532259106 3.7290343537923256 12.121741604051527 1 0 0
887 296 1 0.5897 -10.270610733530715 4.188821054443343 14.0079758698456 0 0 0
876 292 1 0.5897 -12.547433565055698 4.700336516376414 14.603486872926448 0 0 0
683 228 1 0.5897 -16.701029693563843 13.780552103446793 14.128272774628256 0 -1 0
869 290 1 0.5897 -12.415231406039196 8.4356797427944 13.14535490708697 0 0 0
886 296 2 -1.1794 -10.979224907625605 3.7929498520409872 14.515274799292278 0 0 0
944 315 1 0.5897 -14.307759326986478 5.750615230893306 11.247268602749205 1 0 0
943 315 2 -1.1794 -14.135975262556718 6.680135861719888 11.096738113970584 1 0 0
868 290 2 -1.1794 -11.741214805549411 8.834001674070175 12.594680111799368 0 0 0
870 290 1 0.5897 -12.222602447417483 9.425148852079891 12.01588680032731 0 0 0
680 227 1 0.5897 -11.018726787404148 9.657971493363315 15.481064668976655 0 -1 0
875 292 1 0.5897 -13.90399821791681 4.05933331828947 14.804981308251815 0 0 0
877 293 2 -1.1794 -15.32869661542561 9.769365255648227 12.313174807262097 0 0 0
660 220 1 0.5897 -15.552741429466476 11.826556742822708 14.697065360041366 0 -1 0
658 220 2 -1.1794 -16.450162522515715 12.121771671911747 14.850816897529695 0 -1 0
670 224 2 -1.1794 -14.056497370185312 10.920838848110181 14.445589635660816 0 -1 0
671 224 1 0.5897 -13.281773652887356 11.332030327335358 14.062299760137027 0 -1 0
672 224 1 0.5897 -13.706979157611954 10.293848705801883 15.078770770673907 0 -1 0
956 319 1 0.5897 -16.83408238828956 10.907667001719938 12.0010406810673 1 0 0
879 293 1 0.5897 -14.645688608736698 9.970224226293352 11.673350601753183 0 0 0
878 293 1 0.5897 -14.96435380656365 10.055158209332168 13.150936894507279 0 0 0
728 243 1 0.5897 -17.295480028886328 12.9883259825223 11.360233155863057 1 -1 0
659 220 1 0.5897 -16.97778237048865 11.325116504278226 14.794780006062465 0 -1 0
650 217 1 0.5897 -15.557993770147878 8.840226393953527 16.260179992546814 0 -1 0
980 327 1 0.5897 -12.570625933657762 8.38405654643932 16.210785284495024 0 -1 0
979 327 2 -1.1794 -12.622732609644203 9.339537045442482 16.233622267434768 0 -1 0
1209 403 1 0.5897 -13.194962537234169 5.972917293548074 16.235232867436398 0 0 0
1018 340 2 -1.1794 -11.635171441244852 7.258935229288136 20.005468468936755 0 -1 0
1019 340 1 0.5897 -12.20691222462777 6.509876694972927 20.173396966245853 0 -1 0
1020 340 1 0.5897 -10.753060219424999 6.8879043463279945 19.98590272390407 0 -1 0
1043 348 1 0.5897 -12.16996430426939 8.789465602230782 19.199017715431033 0 -1 0
1030 344 2 -1.1794 -9.182711513509089 6.00195578745217 19.907941771312558 0 -1 0
1032 344 1 0.5897 -8.695880937649752 5.450042182814627 20.519972777389373 0 -1 0
1208 403 1 0.5897 -12.151523127960129 6.087335855737296 17.32611575937936 0 0 0
1238 413 1 0.5897 -10.352188353536286 5.2460422465085 18.75961121157475 0 0 0
1237 413 2 -1.1794 -10.763953168793293 5.095097004920969 17.908771849272284 0 0 0
1207 403 2 -1.1794 -12.863534156458625 6.569845338960993 16.906115044039403 0 0 0
990 330 1 0.5897 -14.265198965476078 7.186623131093162 18.121802559252707 0 -1 0
1239 413 1 0.5897 -10.105043464632333 5.36977965598912 17.271115906522557 0 0 0
1003 335 2 -1.1794 -13.357419854977685 4.865691967095945 20.13862227879105 0 -1 0
989 330 1 0.5897 -15.1018017977158 8.395850945878811 18.481868858408014 0 -1 0
1013 338 1 0.5897 -10.822362028683456 10.62114355068581 18.328951785147865 0 -1 0
988 330 2 -1.1794 -14.840025381104487 7.533412064635174 18.804117643711965 0 -1 0
1098 366 1 0.5897 -17.19395829882525 14.459622442821187 18.30547587966602 0 -1 0
1034 345 1 0.5897 -14.568419043023267 7.562016304687264 20.67134651416811 0 -1 0
57 19 1 0.5897 -11.59398064164717 8.475446592775375 21.38631484662216 1 0 -1
991 331 2 -1.1794 -16.006443707901177 13.816993769142465 17.088694647177693 0 -1 0
1002 334 1 0.5897 -16.374128994422215 10.594237592303385 17.86296585129077 0 -1 0
1023 341 1 0.5897 -13.20433344370773 12.261129046137325 17.156562736524315 0 -1 0
1111 371 2 -1.1794 -16.30225858189508 12.337886887515358 20.163731202319937 0 -1 0
992 331 1 0.5897 -15.256244634220451 13.316249836670709 17.409047592978066 0 -1 0
1000 334 2 -1.1794 -15.603321221257378 10.047961353891958 17.70930321973298 0 -1 0
1001 334 1 0.5897 -14.87221453409295 10.66534790113033 17.687079266941204 0 -1 0
1126 376 2 -1.1794 -14.751412507444382 14.736272079461811 20.32048294425017 0 -1 0
1021 341 2 -1.1794 -13.887806113506842 12.137736975810101 17.815244789588753 0 -1 0
1140 380 1 0.5897 -11.92345695335245 12.713002180493037 20.64396655717881 0 -1 0
1138 380 2 -1.1794 -12.368194525111385 13.282693826806272 20.016388157512058 0 -1 0
1128 376 1 0.5897 -13.881466847515728 14.343427652965238 20.249520293737447 0 -1 0
1127 376 1 0.5897 -15.354608189310419 13.995101933180292 20.265698828594676 0 -1 0
1022 341 1 0.5897 -13.444648581284442 12.283121677807896 18.651148548516364 0 -1 0
1119 373 1 0.5897 -15.019704971922437 11.118212560044972 20.401462718703808 0 -1 0
1117 373 2 -1.1794 -14.26038736227445 10.636316019797226 20.729153832220998 0 -1 0
1044 348 1 0.5897 -12.90740733040608 10.063696003138487 19.551587835222172 0 -1 0
1042 348 2 -1.1794 -12.233456738328725 9.716042536298962 18.967504783199132 0 -1 0
981 327 1 0.5897 -12.503928711030746 9.564392799164457 17.156450680556908 0 -1 0
1113 371 1 0.5897 -16.770682711841115 12.156775099285388 19.3488488119191 0 -1 0
1035 345 1 0.5897 -14.464448913385677 8.898902107854147 21.37405702489883 0 -1 0
993 331 1 0.5897 -16.419974909221054 13.243440185358805 16.443502575350333 0 -1 0
1033 345 2 -1.1794 -14.426473423545325 7.95566093675423 21.532262544447043 0 -1 0
1118 373 1 0.5897 -13.89708630249298 11.197771551091686 21.414012346322806 0 -1 0
310 104 2 -1.1794 -3.579162879712354 -8.290477893757187 3.8702610776392676 1 1 0
243 81 1 0.5897 -1.0448667042692144 -5.5999341014379675 5.309799019766916 0 1 0
88 30 2 -1.1794 -4.461722445589796 0.053589218031733665 2.6664258347068563 1 0 0
95 32 1 0.5897 -5.804928778247989 -0.8609228945085352 3.4044440337558917 1 0 0
304 102 2 -1.1794 -1.3505730462557786 -7.169671307994568 2.7635275569734024 1 1 0
318 106 1 0.5897 -2.584512128825164 -4.113103385821173 1.620244632154418 1 1 0
316 106 2 -1.1794 -1.7553143809798009 -4.573388041387777 1.7495878977781922 1 1 0
305 102 1 0.5897 -1.4619671922487 -6.241414926164438 2.5583341151998504 1 1 0
311 104 1 0.5897 -2.8849566426559194 -7.914394114742592 3.3291116736600697 1 1 0
242 81 1 0.5897 -0.9601892293724372 -6.924325382072082 4.5813111462201315 0 1 0
306 102 1 0.5897 -0.7655459451235096 -7.497863209090752 2.080684727162038 1 1 0
317 106 1 0.5897 -1.0846144521212686 -3.912697119142491 1.5768806784670257 1 1 0
293 98 1 0.5897 -4.925274957252947 -3.7959237411291724 2.342361497458009 1 1 0
26 9 1 0.5897 -4.256431333649238 0.45376644030733715 4.351085215147739 0 0 0
96 32 1 0.5897 -5.948019529931421 -1.8903660515907195 4.505178742865533 1 0 0
3 1 1 0.5897 -1.6817389150888875 -3.4854983773207113 4.455265693589751 0 0 0
201 67 1 0.5897 0.275800266813766 -8.513972003220793 0.33471600648494165 1 1 0
90 30 1 0.5897 -3.7243457721496256 -0.32153143073806056 2.185002073462732 1 0 0
294 98 1 0.5897 -4.734863684947652 -2.7813224602874778 1.2350324272966868 1 1 0
103 35 2 -1.1794 -2.9429947430120027 -2.1563079336571 4.000104621486477 1 0 0
104 35 1 0.5897 -3.538352444992346 -2.3505718375416595 4.724012317866919 1 0 0
94 32 2 -1.1794 -6.448590623377894 -1.4216948481946083 3.8373620200815464 1 0 0
292 98 2 -1.1794 -4.250016703041321 -3.3110674860202876 1.8678764460240738 1 1 0
105 35 1 0.5897 -3.424064511078509 -2.420989077011537 3.2160316362835144 1 0 0
89 30 1 0.5897 -4.5998547262316105 0.9109490051545581 2.2638942363437895 1 0 0
303 101 1 0.5897 -7.135559955352731 -2.3574994307904245 1.0189137973825169 1 1 0
241 81 2 -1.1794 -1.0536860106109707 -6.545896902763557 5.4555730471584765 0 1 0
27 9 1 0.5897 -4.022931074563661 1.6820129910759132 5.20477825776076 0 0 0
25 9 2 -1.1794 -4.268242307024731 0.7583691726143194 5.258478431762069 0 0 0
1 1 2 -1.1794 -0.9518259976160763 -3.91494378417291 4.9013376650466975 0 0 0
307 103 2 -1.1794 -2.525293271611903 -0.9928507689169539 1.0633160562137853 1 1 0
302 101 1 0.5897 -7.3665250916265315 -2.143464933836709 2.4997498483792353 1 1 0
309 103 1 0.5897 -2.7978732609365196 -1.565491505788012 0.34635034369789985 1 1 0
1262 421 1 0.5897 -2.064739356811957 -5.7337190047028415 0.36931204556788433 0 0 1
336 112 1 0.5897 -3.3900604161382466 -5.120960033889361 9.380989203610842 0 0 0
404 135 1 0.5897 -4.999106590953125 -3.762102781920065 6.009150501705907 1 0 0
356 119 1 0.5897 0.9587046850067225 -7.160941364141256 10.093774874291382 0 0 0
444 148 1 0.5897 -6.479128919843632 2.175742819536252 9.415121031291699 0 0 0
335 112 1 0.5897 -4.875854475518729 -5.410780331411502 9.39364158073947 0 0 0
632 211 1 0.5897 -4.606887813788244 -5.8923702447047575 6.694487937917484 1 1 0
443 148 1 0.5897 -7.8942358975115665 1.646220012739116 9.509065807351751 0 0 0
554 185 1 0.5897 -2.7555137012119904 -6.720067186409778 7.907707969177671 0 1 0
555 185 1 0.5897 -2.47672484479088 -6.790314600401421 6.421314990331588 0 1 0
553 185 2 -1.1794 -3.160559336068819 -6.95061739135884 7.071616034997323 0 1 0
359 120 1 0.5897 -4.36902592200818 -3.0387511013481667 8.841555011682239 0 0 0
546 182 1 0.5897 0.07724270497928387 -7.40679340805667 6.613166558050603 0 1 0
334 112 2 -1.1794 -4.244389782691953 -4.692554807840172 9.433476493597823 0 0 0