LAMMPS data file via write_data, version 30 Jul 2021, timestep = 500000

2016 atoms
2 atom types
1344 bonds
1 bond types
672 angles
1 angle types

-3.3004799997520093 14.910478998855655 xlo xhi
-0.11796504507756111 45.268353045074655 ylo yhi
-0.15402750515992025 19.384025505159048 zlo zhi
-0.17747546369467554 -6.778975492427637 0.06867433182987866 xy xz yz

Masses

1 1.008
2 15.999

Atoms # full

123 41 1 0.5897 -3.452986345652601 2.8118294085438214 2.3785912831429097 1 0 0
157 53 2 -1.1794 -3.784237236593942 5.135326933649153 4.747773444145052 1 0 0
122 41 1 0.5897 -2.5012454529855406 2.4310162421287522 1.2645095524981507 1 0 0
121 41 2 -1.1794 -2.534035513162304 2.608003720181182 2.204644575758548 1 0 0
87 29 1 0.5897 -3.6145346902881945 1.0204151689138836 4.66241134753942 1 0 0
159 53 1 0.5897 -3.3506606009192046 4.432808534611379 5.232232280079994 1 0 0
113 38 1 0.5897 -3.285717567978578 6.001081478899678 3.152014581618016 1 0 0
114 38 1 0.5897 -3.585232530934624 5.502736321281006 1.7542090485876651 1 0 0
158 53 1 0.5897 -4.299398608010262 4.683504758378202 4.079424888508392 1 0 0
110 37 1 0.5897 -4.6877196541454556 5.712974658421067 6.347228650597609 1 0 0
112 38 2 -1.1794 -3.272753959278565 6.270111040315255 2.2334779063712293 1 0 0
101 34 1 0.5897 -2.5883840570121093 4.3406254670219315 -0.13619116908651405 1 0 0
86 29 1 0.5897 -2.4859041485614286 1.562107324263729 3.8110859985901624 1 0 0
1490 497 1 0.5897 -1.4503758011123105 -0.0058850539736924334 0.7988422082721662 1 1 0
19 7 2 -1.1794 1.0754509944102821 2.283261209858266 -0.07653926487572517 0 0 0
85 29 2 -1.1794 -2.6609943728757255 1.0974962855585926 4.629455866591948 1 0 0
56 19 1 0.5897 -1.3941062482351152 3.6252359853195895 2.958011781157191 0 0 0
602 201 1 0.5897 -0.6006418871053811 5.375906105242832 0.20270963502001194 1 0 1
6 2 1 0.5897 3.34608819684001 1.4745805962827936 4.41740419115737 0 0 0
8 3 1 0.5897 -0.8302135304670659 6.383885828466347 5.588830453705788 0 0 0
10 4 2 -1.1794 2.0923476455266146 6.093783802510976 4.2752286684629714 0 0 0
82 28 2 -1.1794 2.31814961943138 6.088623468023408 -0.0497316199209422 0 0 0
527 176 1 0.5897 3.896374034511469 1.8456831778644602 0.2309528358238464 0 0 1
46 16 2 -1.1794 1.4550468323996952 4.523383139567132 2.0355570330313677 0 0 0
58 20 2 -1.1794 1.9638950940635338 4.13532753683334 6.045019068680851 0 0 0
53 18 1 0.5897 4.263332445526238 2.995711441305038 2.9583685332746237 0 0 0
78 26 1 0.5897 -0.14452004325061774 2.852334941325029 4.50598382110634 0 0 0
70 24 2 -1.1794 3.770264927374183 0.2113177499348482 1.3196790725914356 0 0 0
55 19 2 -1.1794 -0.9098990624540892 4.290679474269882 3.4468256740102827 0 0 0
9 3 1 0.5897 -0.9140031957208077 6.040719237128138 4.116704995356912 0 0 0
57 19 1 0.5897 -0.1464124542593237 4.4808058663277475 2.901648049726443 0 0 0
21 7 1 0.5897 1.2156154352630146 1.8565911056189224 0.7687700638998041 0 0 0
71 24 1 0.5897 3.0526811485672534 0.49896255399699907 1.8841363718732507 0 0 0
5 2 1 0.5897 3.024742182533225 0.12914990615810784 5.032546017055391 0 0 0
77 26 1 0.5897 0.17850077734836978 1.90839772998899 5.644634861296752 0 0 0
54 18 1 0.5897 2.7928063389299522 3.350763063456146 2.8996110767495797 0 0 0
76 26 2 -1.1794 0.4327802271098582 2.1283307724033547 4.748402337008682 0 0 0
59 20 1 0.5897 1.580679633548721 3.3885949495544705 5.584863136114903 0 0 0
4 2 2 -1.1794 3.6869319912459986 0.8203077458763556 5.027303175709809 0 0 0
11 4 1 0.5897 2.2621626646904067 5.445170965302131 4.958376024646688 0 0 0
48 16 1 0.5897 1.7286171071511482 5.053177519449003 2.784357867608069 0 0 0
47 16 1 0.5897 1.765334047404151 5.009400311316953 1.2715152416273592 0 0 0
32 11 1 0.5897 1.004670293305793 1.0820008443225015 3.197637760014109 0 0 0
31 11 2 -1.1794 1.2872072194245092 0.8349908001585941 2.317058013217828 0 0 0
52 18 2 -1.1794 3.4509701603768166 2.9421559917663016 3.461834716358867 0 0 0
33 11 1 0.5897 0.5430255880999955 0.35656199470502264 1.9516426361081813 0 0 0
134 45 1 0.5897 -2.3051762142771284 2.4405268226323074 5.996697052326457 1 0 0
16 6 2 -1.1794 5.525423197902652 4.8949498643510125 -0.07715100105068078 0 0 0
22 8 2 -1.1794 0.017224259220938176 2.5280144644855285 9.482078565081249 0 0 0
23 8 1 0.5897 0.358132170339458 1.8249458809341719 10.03497707391719 0 0 0
24 8 1 0.5897 0.6184110695190395 3.258936415130009 9.625405099261489 0 0 0
34 12 2 -1.1794 -0.20950661183820074 1.0115040080228646 7.3314338052168075 0 0 0
35 12 1 0.5897 -0.1302787972828452 1.655042781041407 8.035563873817107 0 0 0
36 12 1 0.5897 -1.1342362708620697 0.7642810503246296 7.335223349279393 0 0 0
43 15 2 -1.1794 -0.5479975295085207 4.813387843016433 7.132347697910759 0 0 0
44 15 1 0.5897 -0.5963533923663684 5.149740207847365 8.027210068295846 0 0 0
1410 470 1 0.5897 1.2738423227162405 0.17599937295817736 7.9633674694422645 0 1 0
627 209 1 0.5897 -7.059181123152378 2.9306116601617394 12.61779409061248 1 0 0
586 196 2 -1.1794 -1.2202561182883724 6.015456831454553 9.85615058183497 0 0 0
626 209 1 0.5897 -6.28459639674989 1.6317600368330225 12.687526450143944 1 0 0
550 184 2 -1.1794 -1.9289293465664175 4.786828689133814 12.393485218716396 0 0 0
69 23 1 0.5897 -2.9497173928573774 1.1878503360627228 8.802254351733623 0 0 0
97 33 2 -1.1794 -4.394058926778378 4.338940934844469 9.504972349721552 1 0 0
98 33 1 0.5897 -4.38688913727113 4.679565413089707 8.610448062274957 1 0 0
99 33 1 0.5897 -4.244260260745813 5.107415737885951 10.055622824410614 1 0 0
669 223 1 0.5897 -5.758169837564402 2.019382597876816 8.98227952995411 1 0 0
667 223 2 -1.1794 -5.8201858001314495 1.4220635706475928 9.727664809483242 1 0 0
552 184 1 0.5897 -2.783157380696209 4.438909840122392 12.649436221858103 0 0 0
668 223 1 0.5897 -6.054927952503214 1.9836676180172783 10.466407774096263 1 0 0
126 42 1 0.5897 -4.428092482590937 2.969810859182193 7.2377277075438995 1 0 0
67 23 2 -1.1794 -2.7732189354665118 0.39070524131515394 8.302629041585707 0 0 0
618 206 1 0.5897 -6.858723143169593 5.874555495017125 11.644268834279083 1 0 0
124 42 2 -1.1794 -5.320965500065592 2.6252591810438317 7.220021573349013 1 0 0
68 23 1 0.5897 -3.610300782741544 0.17482747145663524 7.8916146575045545 0 0 0
523 175 2 -1.1794 -2.713968530846292 2.2713966793615263 10.13003593280767 0 0 0
524 175 1 0.5897 -3.3373567738217855 2.9084166172485464 9.781008920350779 0 0 0
525 175 1 0.5897 -1.85616573946779 2.608789489906257 9.871959242230728 0 0 0
535 179 2 -1.1794 -1.883263565397879 0.8430100430509574 12.467985284570304 0 0 0
537 179 1 0.5897 -2.1505849028754076 1.6187508357204736 11.97505672652709 0 0 0
574 192 2 -1.1794 0.6955675061514044 0.6151727956557499 11.33384475381037 0 0 0
45 15 1 0.5897 0.3730966179133737 4.582222638345454 7.012278908946607 0 0 0
625 209 2 -1.1794 -6.335593453677837 2.4577690733945654 12.206569541564033 1 0 0
1995 665 1 0.5897 -3.5470649723866114 0.09280246078018847 11.754163553604736 1 1 0
606 202 1 0.5897 -6.051735442127926 4.565138802746112 9.851278733606309 1 0 0
576 192 1 0.5897 -0.13305855437862668 0.5239135495689313 11.80430137824821 0 0 0
522 174 1 0.5897 2.0245215961767666 5.0187589991050405 9.374973601039798 0 0 0
587 196 1 0.5897 -1.7883832445068037 5.668711395106889 10.544096393458775 0 0 0
520 174 2 -1.1794 2.0563017402281467 4.18025909319179 9.83553694045784 0 0 0
135 45 1 0.5897 -1.8694625287919835 3.744442706564502 6.630552144155401 1 0 0
109 37 2 -1.1794 -4.731915603358706 5.891680253077147 7.286572391941734 1 0 0
1409 470 1 0.5897 2.324551469965553 0.4589867390900264 9.015905360112862 0 1 0
133 45 2 -1.1794 -2.6349847729878006 3.184787029517713 6.5002170409959446 1 0 0
1994 665 1 0.5897 -4.513231248339274 0.4170027979251767 10.634641769077874 1 1 0
60 20 1 0.5897 2.5958941967378975 3.7461594957430346 6.649470964945867 0 0 0
558 186 1 0.5897 -0.43308172570912173 3.866640839414726 12.598550038266739 0 0 0
575 192 1 0.5897 1.2738295011521847 -0.031355495759709 11.738617197342318 0 0 0
560 187 1 0.5897 -5.00877541042438 3.456451264896797 12.8123000801216 0 0 0
614 205 1 0.5897 -7.7099314623880515 5.6648179766069156 17.48450081827516 1 0 0
163 55 2 -1.1794 -9.147907346534792 1.492351676085782 19.12076001535078 1 0 -1
508 170 2 -1.1794 0.5025705806777827 0.7686959630581857 14.643938706932111 0 0 0
615 205 1 0.5897 -7.394065558163955 5.996568363953991 16.041537804228284 1 0 0
662 221 1 0.5897 -7.44863012727124 4.664518051712663 14.234151888014111 1 0 0
639 213 1 0.5897 -5.969155373078787 3.8496669997448083 15.520911744984543 1 0 0
20 7 1 0.5897 -5.895000247119967 1.6334019501055603 18.85880421285542 0 0 -1
165 55 1 0.5897 -9.609924303889443 0.6944394464429272 18.86371231992396 1 0 -1
638 213 1 0.5897 -6.498833505293396 2.837183593028479 16.514004063382437 1 0 0
630 210 1 0.5897 -8.38479934275054 1.970990041347556 16.172870808379393 1 0 0
637 213 2 -1.1794 -5.692656589487055 3.1313859110183206 16.089981336792626 1 0 0
538 180 2 -1.1794 -3.4749587278857845 0.7905954106751918 17.16784414615787 0 0 0
539 180 1 0.5897 -3.1701019110080813 1.5900952866187819 17.596873099691745 0 0 0
540 180 1 0.5897 -4.394472323008911 0.7167523018520673 17.42341806055621 0 0 0
547 183 2 -1.1794 -3.7001246491623254 4.952610177204127 17.11048212795951 0 0 0
548 183 1 0.5897 -3.7177352871726397 5.543924126543708 16.357972788134358 0 0 0
549 183 1 0.5897 -4.361873159477972 4.290439663653196 16.91089167941157 0 0 0
528 176 1 0.5897 -3.944713888603462 2.800894319221324 19.15429369860685 0 0 0
629 210 1 0.5897 -9.044305301689445 3.23776762106133 16.67506721577243 1 0 0
663 221 1 0.5897 -6.59417623377683 5.9050042572772075 14.08264534973239 1 0 0
536 179 1 0.5897 -2.0788121822228307 1.0588760312992147 13.379808713147046 0 0 0
561 187 1 0.5897 -3.949373893794693 3.1566530832831465 13.851390097878319 0 0 0
562 188 2 -1.1794 -0.9204680821752538 4.101396182305112 16.248883460651665 0 0 0
563 188 1 0.5897 -0.8036650262028004 4.9334744542176034 15.790390463715644 0 0 0
564 188 1 0.5897 -1.578188788201297 4.286948482704833 16.919148294776846 0 0 0
661 221 2 -1.1794 -6.801423991174437 5.1987192605357375 14.694558238868987 1 0 0
559 187 2 -1.1794 -4.308836481651046 3.8670195527952753 13.319989578913344 0 0 0
580 194 2 -1.1794 -2.487772089620141 2.197909665323284 14.854126417247853 0 0 0
581 194 1 0.5897 -3.066310598247912 2.030683231499292 15.598172753941482 0 0 0
582 194 1 0.5897 -1.828766493819324 2.8033146933408557 15.19385459564946 0 0 0
589 197 2 -1.1794 -5.995018080584935 0.8140416928226001 14.525424080181779 1 0 0
590 197 1 0.5897 -5.742106182650161 1.612405776981898 14.988947648605114 1 0 0
164 55 1 0.5897 -8.830057014290695 1.8616192894735095 18.296823479630294 1 0 -1
628 210 2 -1.1794 -8.36089005521574 2.603323656442535 16.89106894701833 1 0 0
513 171 1 0.5897 -4.504288999251514 5.650582169109204 14.382297048935303 0 0 0
84 28 1 0.5897 -4.015768942169739 5.728827546296376 18.7571601626635 0 0 -1
613 205 2 -1.1794 -7.7967947432308575 6.358639900666628 16.830827795924634 1 0 0
593 198 1 0.5897 -7.760531104645933 0.5715206366396774 14.274600665130581 1 0 0
557 186 1 0.5897 -0.13536483619010653 2.5015483027830863 13.181403676125198 0 0 0
571 191 2 -1.1794 -6.087287731019416 0.2811657924053956 17.8967896213747 0 0 0
556 186 2 -1.1794 0.28931812405734014 3.302834149947789 12.875128071495919 0 0 0
511 171 2 -1.1794 -3.9950859948882904 6.357056891385987 14.779558357536528 0 0 0
591 197 1 0.5897 -5.245204339018537 0.22825494309675048 14.629702867253874 1 0 0
601 201 2 -1.1794 -7.4816621364078335 4.823842945213999 19.01931150860261 1 0 0
18 6 1 0.5897 -1.7267976609386642 4.143191129950719 19.3225763674292 0 0 -1
1913 638 1 0.5897 -2.089661095478485 -0.02683383450607854 17.887964925108843 0 1 0
551 184 1 0.5897 -1.7400747810621642 5.4624253833681875 13.044729047904765 0 0 0
526 176 2 -1.1794 -3.0012105788652743 2.6394419494927894 19.155486204854174 0 0 0
603 201 1 0.5897 -6.981354593013293 4.05469815604593 19.29193655417187 1 0 0
291 97 1 0.5897 -3.6741487221223723 10.522381189099331 2.390577063803105 1 0 0
332 111 1 0.5897 -2.491619951211776 9.264853300433773 0.37748099095846743 1 0 0
289 97 2 -1.1794 -2.8339351499514427 10.25483200230986 2.0181060994500015 1 0 0
325 109 2 -1.1794 -4.2762534300344655 12.412195792044814 4.809513166628931 1 0 0
257 86 1 0.5897 -4.619711293318568 8.533779374812239 4.472245581748754 1 0 0
770 257 1 0.5897 -1.8856240626813545 12.337020077951834 -0.06216364795627567 1 0 1
326 109 1 0.5897 -3.5313684807719268 12.171012396494012 5.360163873053603 1 0 0
771 257 1 0.5897 -0.4806117795558409 11.773186847737025 -0.06153983939168031 1 0 1
188 63 1 0.5897 0.7777965067643517 10.07962108430378 0.9404349511445322 0 0 0
12 4 1 0.5897 1.3203213568607879 6.569155088531769 4.5822466799030215 0 0 0
226 76 2 -1.1794 2.238642941277673 11.690996215924267 6.331629110111991 0 0 0
302 101 1 0.5897 -2.392579691585659 10.000309890462294 5.8777430292606505 1 0 0
290 97 1 0.5897 -2.2130334111095196 10.91386821584841 2.3285394834487163 1 0 0
255 85 1 0.5897 -2.573912228600424 9.199940206305476 3.6178288523586515 1 0 0
253 85 2 -1.1794 -2.8862858018660225 8.76746831032386 4.412590466396264 1 0 0
147 49 1 0.5897 -1.0314896225154802 7.660890482293815 0.6885092459791081 1 0 0
221 74 1 0.5897 4.546116210011758 10.642664802510813 2.7182651348043003 0 0 0
7 3 2 -1.1794 -0.7766502626105147 6.7740245839237465 4.716377722494002 0 0 0
173 58 1 0.5897 3.1989868068913863 7.595534312009135 4.409743659241894 0 0 0
174 58 1 0.5897 3.496008134100016 9.062639065273995 4.183490429003408 0 0 0
29 10 1 0.5897 4.872361812400194 6.656866651462316 2.2063189293113896 0 0 0
172 58 2 -1.1794 3.692312917390699 8.33232180886398 4.7702735684237405 0 0 0
146 49 1 0.5897 -1.5530401612376665 6.711677116891678 1.746292829881642 1 0 0
222 74 1 0.5897 3.132076037872432 11.156165459325559 2.8879353164443713 0 0 0
228 76 1 0.5897 1.9196618545416948 11.025654300462966 5.721886891195093 0 0 0
216 72 1 0.5897 1.003630009186617 12.537075197282869 2.537576505593912 0 0 0
769 257 2 -1.1794 -0.9660961510801309 12.595932478750104 -0.0014346545801650346 1 0 1
145 49 2 -1.1794 -0.752263563072376 6.971054895987594 1.2904914289619247 1 0 0
254 85 1 0.5897 -2.308948863266221 8.011153766602957 4.516957893505099 1 0 0
225 75 1 0.5897 -0.8163825261525162 12.62421294899283 3.9584800866637586 0 0 0
244 82 2 -1.1794 0.4718113555827541 10.027859681290606 4.61103856311194 0 0 0
200 67 1 0.5897 0.6355359330379748 8.047485007334416 2.1353144487797313 0 0 0
214 72 2 -1.1794 1.9192572169322384 12.779586172352317 2.399444779657312 0 0 0
238 80 2 -1.1794 3.623651872557317 7.918998071481017 1.4305585141368926 0 0 0
220 74 2 -1.1794 3.802782498087587 10.628276535486016 3.3212007142380604 0 0 0
240 80 1 0.5897 3.303607307148292 7.283757611860033 0.7900459622283674 0 0 0
239 80 1 0.5897 3.9303517734576303 8.657091145791576 0.9038907749525096 0 0 0
201 67 1 0.5897 2.006980045572723 8.610158465251212 1.8279066769254355 0 0 0
246 82 1 0.5897 0.4052371209341765 9.476643011664533 5.390762417074825 0 0 0
224 75 1 0.5897 -0.4066812895763725 11.216892058514054 3.5797576509157207 0 0 0
223 75 2 -1.1794 -0.858688130359627 11.990310432205868 3.242518429168533 0 0 0
245 82 1 0.5897 0.821767703471755 9.44690388708334 3.9355625608761153 0 0 0
199 67 2 -1.1794 1.1580750329782843 8.846710575793093 2.2016379515846953 0 0 0
187 63 2 -1.1794 0.8123285490613679 10.462149277565224 0.06366211017385881 0 0 0
744 248 1 0.5897 -0.002631270070453162 7.003567066804776 10.98773408757892 0 0 0
227 76 1 0.5897 1.4707944167772036 11.927543520710833 6.851950392632117 0 0 0
294 98 1 0.5897 -5.437925043311463 9.791413083102354 8.084137885934084 1 0 0
212 71 1 0.5897 -0.7211547449981328 12.625919867118505 8.16524427121971 0 0 0
190 64 2 -1.1794 0.21123772473847868 9.640868588235074 9.351125930446662 0 0 0
191 64 1 0.5897 0.3349425782294899 9.39302559421853 8.434867947629305 0 0 0
192 64 1 0.5897 0.7873751453178981 10.395047148420705 9.475597066205836 0 0 0
202 68 2 -1.1794 0.2658621700468946 8.626318343162573 6.9966484233832045 0 0 0
301 101 2 -1.1794 -2.4950420757281266 10.78143440224389 6.4214003691412 1 0 0
204 68 1 0.5897 0.6064929057864195 7.938286750203121 7.568317407575698 0 0 0
293 98 1 0.5897 -4.425522396857049 10.430984532206027 7.157872025529135 1 0 0
718 240 2 -1.1794 -1.5696694323212057 12.285164501733881 11.956419839844768 0 0 0
795 265 1 0.5897 -6.29601403021763 9.677668971391535 11.351924674158848 1 0 0
651 217 1 0.5897 -5.015306324067787 6.777635022460891 11.38649261321707 1 0 0
235 79 2 -1.1794 -2.542763823231832 7.5690530960820395 7.774457470979174 0 0 0
236 79 1 0.5897 -3.2607541365235533 7.008328029377296 7.480684740659714 0 0 0
237 79 1 0.5897 -2.9746923057680186 8.301196571769099 8.214498720854909 0 0 0
649 217 2 -1.1794 -4.270222930395748 6.877222231495667 10.793857648851949 1 0 0
266 89 1 0.5897 -3.5221283157523846 11.231924067720543 9.62029723379922 1 0 0
203 68 1 0.5897 -0.6817616125317065 8.491141064085237 6.996756044575933 0 0 0
616 206 2 -1.1794 -6.673540532158641 6.527142942434665 12.319587908668037 1 0 0
267 89 1 0.5897 -4.130569833015766 12.361981594129695 8.81740846204998 1 0 0
64 22 2 -1.1794 1.6989716047488495 6.891259242612352 8.641304920871217 0 0 0
211 71 2 -1.1794 -0.5004296413098457 12.326484069107943 7.283270410370581 0 0 0
617 206 1 0.5897 -7.211332418163726 7.281342948246503 12.0783778729444 1 0 0
837 279 1 0.5897 -6.671495173832348 8.322212035685544 9.480238691490797 1 0 0
111 37 1 0.5897 -5.53469053969412 6.401328508507539 7.396413879563943 1 0 0
65 22 1 0.5897 2.154800355716887 7.60918896852966 9.080629659817776 0 0 0
650 217 1 0.5897 -3.5808937884668692 7.259269698274889 11.337079527450966 1 0 0
704 235 1 0.5897 -1.5732633228050856 8.048054275286116 12.338182582248516 0 0 0
793 265 2 -1.1794 -6.233575332930359 9.89273597625941 12.282567752776712 1 0 0
691 231 2 -1.1794 -2.6614030820671206 9.750430318747272 9.790274701882629 0 0 0
692 231 1 0.5897 -1.7139716803302 9.875435600023128 9.735376680083117 0 0 0
693 231 1 0.5897 -2.8205349116652236 9.520712890495453 10.705789651963881 0 0 0
265 89 2 -1.1794 -4.169252973521216 11.935234221006873 9.67335150520155 1 0 0
724 242 2 -1.1794 0.46970920146056194 10.58610928493814 12.616196394421134 0 0 0
292 98 2 -1.1794 -5.265741992382825 9.972431240106953 7.160098784135564 1 0 0
836 279 1 0.5897 -5.268331757606839 8.487358873974339 10.024107119733006 1 0 0
774 258 1 0.5897 -6.219899587867237 11.82239969019228 9.773524663754339 1 0 0
835 279 2 -1.1794 -6.024344781361523 8.9869868977557 9.715795039799094 1 0 0
742 248 2 -1.1794 0.5005673934619788 7.536957641095631 11.602962960767849 0 0 0
743 248 1 0.5897 0.8832318445941096 8.228865623736304 11.0634600065363 0 0 0
703 235 2 -1.1794 -2.4300974883547823 8.472669984989535 12.295876088462679 0 0 0
794 265 1 0.5897 -5.475753552872898 10.474234914340967 12.344155268688388 1 0 0
719 240 1 0.5897 -1.6068076240691593 12.789629262791276 11.143783918411645 0 0 0
726 242 1 0.5897 -0.3132347544318792 10.89946407486486 12.163372162909063 0 0 0
303 101 1 0.5897 -1.6137817471049978 10.964285606169183 6.747272389303697 1 0 0
688 230 2 -1.1794 1.714484727648574 12.123755109525028 9.976737243381015 0 0 0
728 243 1 0.5897 -3.6152449364971533 11.851116660458192 12.427042974279138 0 0 0
66 22 1 0.5897 2.1979267738407495 6.746472851898036 7.837341021625435 0 0 0
588 196 1 0.5897 -1.7722434373677776 6.634630716779237 9.378488007215315 0 0 0
773 258 1 0.5897 -6.934215181636225 12.866664010834393 10.604900011646889 1 0 0
690 230 1 0.5897 1.6086654951739758 12.850995317259109 9.363433215851488 0 0 0
805 269 2 -1.1794 -5.936129783188198 10.92945424110204 16.374156297872293 1 0 0
515 172 1 0.5897 -2.1116911034599806 6.641405510713903 14.943223054260322 0 0 0
333 111 1 0.5897 -8.537201376833266 9.340406153140679 18.59111130741777 1 0 -1
512 171 1 0.5897 -4.515449986821594 7.1451058723450585 14.623293658236648 0 0 0
729 243 1 0.5897 -4.264148158671593 12.418363153761456 13.671684610334486 0 0 0
516 172 1 0.5897 -0.756808182423538 7.285792455070568 14.740729905307314 0 0 0
570 190 1 0.5897 -0.6419632636765105 7.092734204877238 17.220034904969896 0 0 0
725 242 1 0.5897 0.5599306986768191 11.168457234314188 13.370489333353055 0 0 0
797 266 1 0.5897 -7.558926796686878 10.631852425676659 16.98020809488679 1 0 0
568 190 2 -1.1794 -1.3760049084826367 7.24329678457436 17.815683178037954 0 0 0
741 247 1 0.5897 -6.359891956296368 9.031977827380892 18.335133782269725 0 0 0
759 253 1 0.5897 -5.98249560615975 9.007194760487081 13.878124920482799 1 0 0
798 266 1 0.5897 -8.79823811317491 9.924162318899269 16.47506210565994 1 0 0
706 236 2 -1.1794 -3.393785005493987 9.025495562302098 16.974374885584133 0 0 0
707 236 1 0.5897 -4.2187217885947 8.67762060656082 17.31309048516979 0 0 0
708 236 1 0.5897 -2.7182004748516775 8.494634975640716 17.396276403180988 0 0 0
727 243 2 -1.1794 -4.1881170362597775 11.61510870099533 13.156694213714818 0 0 0
715 239 2 -1.1794 -3.808171901461926 12.558001198441936 17.33243174062536 0 0 0
732 244 1 0.5897 -0.4267354823903222 11.526751028053331 16.501172849299017 0 0 0
807 269 1 0.5897 -5.162971994155351 11.43732396441269 16.620175104937392 1 0 0
806 269 1 0.5897 -6.308248924224904 11.403776580212229 15.630664532490218 1 0 0
796 266 2 -1.1794 -8.473795288928265 10.457083142919615 17.200978532453533 1 0 0
831 277 1 0.5897 -7.953874933662409 12.01546266778152 14.174944131174511 1 0 0
730 244 2 -1.1794 -1.2967285000585695 11.855392713472513 16.27455517130775 0 0 0
731 244 1 0.5897 -1.5568915770939071 11.339452589980462 15.511437923437311 0 0 0
83 28 1 0.5897 -5.130433491378967 6.702581520738461 19.07537603309042 0 0 -1
739 247 2 -1.1794 -5.844704596065961 8.289893084235139 18.01870818934197 0 0 0
740 247 1 0.5897 -6.469937797158959 7.754719536265526 17.529940523437332 0 0 0
678 226 1 0.5897 0.6771673640930276 9.145296340591372 14.023676766593098 0 0 0
748 250 2 -1.1794 -2.3900439602153973 9.986320338640354 14.37754799974688 0 0 0
749 250 1 0.5897 -2.8686074220783446 9.620899490007966 15.121666251768891 0 0 0
750 250 1 0.5897 -3.0175157369015766 10.570914489234182 13.952396145681151 0 0 0
757 253 2 -1.1794 -5.941556463883888 8.474959229315514 14.672661026546324 1 0 0
758 253 1 0.5897 -5.897085284729682 9.111642797635662 15.386016579698033 1 0 0
717 239 1 0.5897 -2.875685645962304 12.394730918911396 17.19071858466196 0 0 0
762 254 1 0.5897 -7.905402203315876 8.376962112908712 15.05535752032057 1 0 0
695 232 1 0.5897 -2.96934346688405 10.011535015913267 18.420739141571694 0 0 0
331 111 2 -1.1794 -8.910613549390726 8.751174368590267 19.246561977949778 1 0 -1
705 235 1 0.5897 -2.516781047769177 8.922518572753436 13.136332049969695 0 0 0
829 277 2 -1.1794 -7.283556527472378 12.612510201700523 14.507249471251798 1 0 0
696 232 1 0.5897 -2.479341990581795 11.099605057524334 19.35232306510979 0 0 0
694 232 2 -1.1794 -3.022102266906429 10.311543285415915 19.328187819139252 0 0 0
676 226 2 -1.1794 0.5489402377147137 8.635607016389354 14.823689028501832 0 0 0
569 190 1 0.5897 -1.2852964471789337 6.564738593057423 18.48467935342142 0 0 0
514 172 2 -1.1794 -1.2040996298268345 6.4399287698603755 14.715279095991196 0 0 0
189 63 1 0.5897 -5.0476048593905505 10.458071074138664 19.344139269112755 0 0 -1
425 142 1 0.5897 -4.272009749236002 15.784383272701442 4.774649341515629 1 0 0
280 94 2 -1.1794 -3.767169151605809 13.645457557133822 2.463575398038681 1 0 0
424 142 2 -1.1794 -5.140954706531093 16.077155989509148 5.049406934431639 1 0 0
281 94 1 0.5897 -3.9381495730696634 13.195168723439354 3.2907736137597703 1 0 0
327 109 1 0.5897 -4.767969579308877 13.04398024150546 5.334212640539117 1 0 0
499 167 2 -1.1794 -2.437396816932819 16.468539659178152 0.12741652361560413 1 0 0
179 60 1 0.5897 2.290940526565932 13.092136662593129 5.320970946679967 0 0 0
458 153 1 0.5897 -2.7876290522480174 17.62853052205963 1.5901756654615402 1 0 0
470 157 1 0.5897 -2.916117574731711 19.2319434695267 5.823218613550803 1 0 0
457 153 2 -1.1794 -3.0186635472935843 18.089651449895204 2.39655110891217 1 0 0
282 94 1 0.5897 -2.874865153638922 13.980304296299877 2.5525708715115654 1 0 0
459 153 1 0.5897 -2.2543566599411013 18.632474027174336 2.589960411214978 1 0 0
423 141 1 0.5897 -2.270417053692906 16.776664359255115 3.6199042485691977 1 0 0
939 313 1 0.5897 -0.28389782869385893 19.18973716512681 -0.03473674253308705 1 0 1
500 167 1 0.5897 -1.86452141011922 15.91223754422948 0.6552138945602368 1 0 0
215 72 1 0.5897 1.9462388199324305 13.114509765370412 1.5031466421129844 0 0 0
469 157 2 -1.1794 -2.519651460003674 18.45015137722815 6.207698614735298 1 0 0
421 141 2 -1.1794 -2.3327805822130068 16.400938635756308 4.498077452006427 1 0 0
422 141 1 0.5897 -2.2395324070286105 17.14991606728453 5.086762563521026 1 0 0
313 105 2 -1.1794 -1.2825936591106517 14.832218971597328 1.8870588318990684 1 0 0
368 123 1 0.5897 1.9260960926557438 16.161091440408534 2.204007936072505 0 0 0
315 105 1 0.5897 -1.0152110247771975 14.10952573763172 1.3192142478607776 1 0 0
367 123 2 -1.1794 1.0109816650893073 16.311077144588115 2.4413803340934908 0 0 0
341 114 1 0.5897 3.8442665101001605 15.196514273958185 5.052208746211435 0 0 0
413 138 1 0.5897 1.218072881531886 18.02961771657565 5.19781913193171 0 0 0
252 84 1 0.5897 3.0592666187214306 14.51431126337165 0.5885913835458776 0 0 0
180 60 1 0.5897 2.368831913528898 13.454220036725104 3.853051365087164 0 0 0
314 105 1 0.5897 -0.46053649901338733 15.238865851230985 2.161095821648795 1 0 0
176 59 1 0.5897 -0.790558139495324 14.845871437714589 4.903621428651707 0 0 0
389 130 1 0.5897 3.8454274633578125 17.50963997978893 4.007338154166222 0 0 0
407 136 1 0.5897 4.41144697433295 15.699417255295428 2.0062760442232497 0 0 0
369 123 1 0.5897 1.044707290457616 16.61090240525503 3.3497931706165436 0 0 0
408 136 1 0.5897 3.8884193584721967 16.656049321932976 0.955950603367947 0 0 0
406 136 2 -1.1794 3.6565865404847946 15.864237009499298 1.4412419118826196 0 0 0
178 60 2 -1.1794 2.3362305643282193 13.841886512219622 4.727636022953079 0 0 0
388 130 2 -1.1794 3.89986581601669 18.256767757022782 3.411470986144969 0 0 0
356 119 1 0.5897 1.0849170580197818 17.51385229775726 1.1835283295368995 0 0 0
175 59 2 -1.1794 -0.42518424742237393 13.964745920347216 4.9831701808871625 0 0 0
414 138 1 0.5897 -0.11283713105083759 17.831718527976374 4.503959662322647 0 0 0
177 59 1 0.5897 0.5216998913988284 14.100006394628096 5.020272183267856 0 0 0
412 138 2 -1.1794 0.6341860245094257 17.350573802529723 4.859903326294942 0 0 0
250 84 2 -1.1794 2.6404726395677978 13.865188263113781 0.023381313478179455 0 0 0
355 119 2 -1.1794 0.8906133898513424 17.79389273972019 0.289061906189842 0 0 0
372 124 1 0.5897 0.1574571243015117 16.35180595984801 6.218527356440489 0 0 0
461 154 1 0.5897 -5.356476612061632 18.073140237470753 7.356058861959194 1 0 0
232 78 2 -1.1794 1.8174347835004836 14.31835659585211 8.244337409321773 0 0 0
910 304 2 -1.1794 0.4889881011795634 15.229911468436956 10.964852904256823 0 0 0
234 78 1 0.5897 1.2143123619097365 14.884750762402657 7.763014952903281 0 0 0
277 93 2 -1.1794 -4.798311528274085 13.599359893881314 7.393876866033042 1 0 0
278 93 1 0.5897 -4.213977288538609 14.349351210995716 7.283028814931421 1 0 0
961 321 2 -1.1794 -6.314387108257545 17.43247130679009 12.283598872783804 1 0 0
358 120 2 -1.1794 0.29907337264154954 17.611325021822626 9.575363104087726 0 0 0
359 120 1 0.5897 0.3901912066882893 16.97847115522195 10.287697763096858 0 0 0
360 120 1 0.5897 0.948002222807772 18.28736576096939 9.770498502000537 0 0 0
370 124 2 -1.1794 0.0002881544299606631 16.068994309168826 7.119401540575135 0 0 0
371 124 1 0.5897 0.3896302475329949 16.75748817441718 7.658472489803362 0 0 0
1005 335 1 0.5897 -5.020910500700733 15.461041118389154 9.972234140181124 1 0 0
963 321 1 0.5897 -6.122007152803538 16.85203908191363 11.547170147629567 1 0 0
403 135 2 -1.1794 -2.705026820066302 15.291951478568565 7.769870911512039 0 0 0
404 135 1 0.5897 -1.8188915706882325 15.499084407827205 7.472999968183321 0 0 0
405 135 1 0.5897 -2.8904979439529335 15.944320197400565 8.445330872149539 0 0 0
213 71 1 0.5897 -0.6178715912568551 13.099404457170017 6.730985155863304 0 0 0
471 157 1 0.5897 -3.2133180996181894 18.0694836728216 6.7463858845151 1 0 0
871 291 2 -1.1794 -2.10502568527016 15.992845459334575 11.97589774120869 0 0 0
233 78 1 0.5897 2.6471078706420217 14.395917656324814 7.773267129639703 0 0 0
912 304 1 0.5897 1.2319270646833589 14.869612202989916 11.449065486719707 0 0 0
460 154 2 -1.1794 -4.725019162290765 17.39264880757275 7.589342575717834 1 0 0
754 252 2 -1.1794 -1.3532679079934606 13.453689176550753 9.556482836445962 0 0 0
755 252 1 0.5897 -0.6715041678782452 13.986236643265729 9.96613201970128 0 0 0
756 252 1 0.5897 -1.9256060526741439 14.087538489802379 9.12417486457914 0 0 0
279 93 1 0.5897 -5.574078366928839 13.960803236928106 7.822615740690207 1 0 0
911 304 1 0.5897 -0.15784588803769584 15.439308824166652 11.638676925643233 0 0 0
817 273 2 -1.1794 -4.083924969222744 14.325795256366918 10.934898925801363 1 0 0
818 273 1 0.5897 -4.90222744539637 14.226031226479178 11.421426380232754 1 0 0
819 273 1 0.5897 -3.950044004363669 13.476720120236935 10.513762131044961 1 0 0
859 287 2 -1.1794 -2.483863094276483 17.563202323526628 9.552822842630492 0 0 0
860 287 1 0.5897 -2.8890504534287307 18.41629071714093 9.708640356665382 0 0 0
861 287 1 0.5897 -1.5662425320266888 17.763473017738516 9.368084661114276 0 0 0
784 262 2 -1.1794 -6.492929523354055 13.756113933114479 12.192641703693134 1 0 0
872 291 1 0.5897 -2.122082959377839 16.627233048536894 11.259315663193131 0 0 0
873 291 1 0.5897 -2.81523553091382 15.383674704609524 11.774067948583525 0 0 0
1004 335 1 0.5897 -5.2573936974219 16.641103908122474 9.053872441076587 1 0 0
1003 335 2 -1.1794 -5.70567910532359 16.05378682288819 9.662433382631136 1 0 0
462 154 1 0.5897 -4.801277426194682 16.744334798944106 6.889273665186209 1 0 0
785 262 1 0.5897 -7.243200491498788 14.338685625655836 12.074558092638007 1 0 0