LAMMPS data file via write_data, version 30 Jul 2021, timestep = 1250000

864 atoms
2 atom types
576 bonds
1 bond types
288 angles
1 angle types

0.6357610205498325 17.57181137945318 xlo xhi
1.840373775058083 21.788804024945122 ylo yhi
0.7756269601045069 21.4375688398965 zlo zhi

Masses

1 1.00794
2 15.9994

Pair Coeffs # lj/cut/tip4p/long/omp

1 0 0
2 0.21084 3.1668

Bond Coeffs # harmonic/omp

1 450 0.9572

Angle Coeffs # harmonic/omp

1 55 104.52

Atoms # full

679 1 2 -1.1794 2.9402299167758823 4.3410521045313635 5.240782814790027 -6 -5 0
201 1 1 0.5897 2.458747053989499 5.9598480302172 4.242594433408847 2 -4 -1
56 1 1 0.5897 3.1389530967633417 3.6868832955566666 2.173068149958807 -3 1 1
57 1 1 0.5897 4.54723713213504 3.9424909308604064 2.6665764682426776 -3 1 1
55 1 2 -1.1794 4.009342176488698 3.290825654859036 2.2167532552992397 -3 1 1
680 1 1 0.5897 2.144753843557676 3.8182191209668925 5.139531442690074 -6 -5 0
198 1 1 0.5897 3.820202027796774 2.7227785821300277 4.957172158808593 -2 -1 0
200 1 1 0.5897 1.7140971182219689 5.914092662959151 2.925180770724715 2 -4 -1
199 1 2 -1.1794 1.9440437316346082 6.502059263093534 3.6447384898011497 2 -4 -1
277 1 2 -1.1794 1.427454183777 4.199367142669104 2.0128180626862475 1 2 0
81 1 1 0.5897 3.456622683397163 6.823909708709694 1.0873706407047576 2 2 -4
279 1 1 0.5897 0.960337658834874 3.9796108338012455 2.818978779666226 1 2 0
278 1 1 0.5897 0.8213193472616425 4.761162932049066 1.5297837327066293 1 2 0
113 1 1 0.5897 3.777962864520043 3.905102923725819 9.74969938325588 -2 -2 2
617 1 1 0.5897 2.9979909787103374 5.291812338620405 8.070323376147666 -2 2 0
618 1 1 0.5897 4.1273940597305145 4.36304583722713 7.677896567723661 -2 2 0
112 1 2 -1.1794 4.2900755605775664 3.9179357543963977 10.55834958880348 -2 -2 2
18 1 1 0.5897 1.610178496993948 6.613695063527452 9.24084278987791 -1 3 3
594 1 1 0.5897 4.423690866536089 2.0208945428881115 10.083417370857891 -1 0 -2
31 1 2 -1.1794 1.6120519965092734 2.4125512956788953 9.338912778017782 3 8 1
616 1 2 -1.1794 3.25059621831352 4.3685282848864055 8.061998422592724 -2 2 0
595 1 2 -1.1794 0.7252831068881284 6.091589955630223 7.851741522383181 0 -3 1
33 1 1 0.5897 2.126694501092326 2.7788679344845413 8.61968138230353 3 8 1
16 1 2 -1.1794 2.2615917541593475 6.702539110163957 9.936657486208476 -1 3 3
681 1 1 0.5897 3.1517139533840552 4.278241135131749 6.172279574144547 -6 -5 0
750 1 1 0.5897 1.9073158541982664 3.3972662977727692 10.99317529730498 2 4 0
657 1 1 0.5897 4.721278313381789 6.615329528274953 8.027032276282176 1 2 -1
114 1 1 0.5897 3.927984964900875 4.648280612663621 11.060166974303018 -2 -2 2
748 1 2 -1.1794 1.5711122482521065 3.874628876673338 11.751747962176744 2 4 0
367 1 2 -1.1794 2.4890577633578053 4.835159689200953 15.754639932030157 5 4 -4
368 1 1 0.5897 1.7987710617931156 5.249792002462634 15.237026830307238 5 4 -4
8 1 1 0.5897 0.9822298571588313 6.328698160117186 11.299055145208932 2 -1 0
766 1 2 -1.1794 3.350024820094669 5.681803530788791 12.598340465322693 -1 -1 0
848 1 1 0.5897 4.6457241225806865 5.858460092167905 13.993842352901373 3 -2 5
369 1 1 0.5897 3.139209592020303 4.5576576215305735 15.109146113529494 5 4 -5
768 1 1 0.5897 2.831456600063976 6.471945637666693 12.75038864296963 -1 -1 0
767 1 1 0.5897 2.7015008273591232 4.985049618160361 12.496575236105226 -1 -1 0
725 1 1 0.5897 4.0494952332188285 2.3375054486323608 13.438445756456376 4 -4 4
749 1 1 0.5897 0.7954186491633735 3.382326704819558 12.02060140833477 2 4 0
726 1 1 0.5897 4.482502684892642 3.632687130825512 12.784868583434427 4 -4 4
724 1 2 -1.1794 4.65761683719461 3.0698895667338997 13.539140774983231 4 -4 4
117 1 1 0.5897 2.706618124994708 6.57672538779124 15.98988133667253 -1 -3 4
537 1 1 0.5897 1.9286215842605812 5.456177722233608 19.085530200739775 6 6 2
395 1 1 0.5897 2.2702329495209623 3.173608487643935 16.726770328763774 3 1 4
683 1 1 0.5897 3.600258108214021 4.933090648058405 17.114534911264062 5 1 -6
535 1 2 -1.1794 1.10337454657141 5.3191805838246236 18.620140728802347 6 6 2
307 1 2 -1.1794 3.293645594179657 5.461378068417481 20.52093514536697 0 5 -3
308 1 1 0.5897 3.110599019332589 4.607346330254524 20.912752809967955 0 5 -3
430 1 2 -1.1794 3.12658201974263 2.441879429254548 19.716874397021208 -7 -2 -3
431 1 1 0.5897 2.6074672240248384 2.740219708618006 18.969985082753368 -7 -2 -3
309 1 1 0.5897 3.8284077339464764 5.263061394061778 19.752108564960963 0 5 -3
394 1 2 -1.1794 1.7070142092664566 2.7937639766325972 17.401206436753355 3 1 4
423 1 1 0.5897 1.3205397046487648 2.081394786386868 20.786204166670228 -4 -1 4
536 1 1 0.5897 1.2962557682934062 4.626262935784364 17.98847665202353 6 6 2
684 1 1 0.5897 4.670799555341731 5.854888902481341 17.659070095321013 5 1 -6
682 1 2 -1.1794 4.327086947970427 4.964837520454061 17.73670738075691 5 1 -6
396 1 1 0.5897 1.490717351434697 1.9219863295848574 17.070208493275665 3 1 3
79 1 2 -1.1794 3.6672117599222416 7.477500342400823 1.754311136169831 2 2 -4
649 1 2 -1.1794 3.8267296475163306 9.538180113843897 4.50562152575128 1 -1 0
692 1 1 0.5897 1.0102733280229 7.602903027113095 5.030335499373285 2 -1 2
650 1 1 0.5897 3.4596804989809873 10.152102522040854 3.869415929140458 1 -1 0
448 1 2 -1.1794 1.2582751184331555 10.116369389528916 2.46877949760888 7 -3 -3
651 1 1 0.5897 3.237580370767758 9.591675781776088 5.258211601650562 1 -1 0
449 1 1 0.5897 1.3752918761234816 10.411486790635795 1.5657034702389132 7 -3 -3
351 1 1 0.5897 1.4862579997051113 11.77920808620085 3.427950174792013 -9 1 -3
80 1 1 0.5897 3.0422972391937084 7.3103377722299605 2.4599251257087014 2 2 -4
142 1 2 -1.1794 4.727092456954792 11.615358208780561 2.6904159418180438 -2 4 3
354 1 1 0.5897 4.802910063925422 7.880310559744454 4.52936078894604 3 3 -1
663 1 1 0.5897 4.203426232686075 9.281558472680572 10.449778332381726 -2 -3 1
662 1 1 0.5897 3.939431443627621 10.286976913934586 9.349027449514526 -2 -3 1
553 1 2 -1.1794 2.4171060236240622 9.571174091959985 6.970028022660364 -4 -5 3
27 1 1 0.5897 2.6801526257669153 11.702305730709003 6.640294776675648 -2 7 6
92 1 1 0.5897 2.435953962968048 10.190251925228354 10.761800809469939 2 -5 0
554 1 1 0.5897 2.858496562532574 9.120119833890211 7.6897932230527895 -4 -5 3
555 1 1 0.5897 1.722509260101622 8.970277404529886 6.70023175481834 -4 -5 3
656 1 1 0.5897 4.463394928910402 7.14955264643934 6.634094315829549 0 2 -1
661 1 2 -1.1794 3.7296538281639218 9.394906779546739 9.62573667897909 -2 -3 1
17 1 1 0.5897 2.818115656912376 7.427991160487289 9.653217639695214 -1 3 3
91 1 2 -1.1794 1.5743970745735232 10.607495348558245 10.76953740768149 2 -5 0
655 1 2 -1.1794 4.0832172111609335 7.108940235046546 7.511676611096824 0 2 -1
377 1 1 0.5897 0.7933585634614277 10.9972981119604 9.155113459648616 3 3 3
378 1 1 0.5897 1.1035560536627111 10.36395222267846 7.815392317732036 3 3 3
209 1 1 0.5897 2.9882050549271 8.224063022638042 14.427072975841 1 -3 2
115 1 2 -1.1794 3.087366511401647 7.452994898106291 16.049217190435876 -1 -3 4
93 1 1 0.5897 1.675566451235841 11.356202921186522 11.357374352903367 2 -5 0
210 1 1 0.5897 2.1005375178536427 9.152681906443458 13.625904566567828 1 -3 2
208 1 2 -1.1794 2.740289350347451 8.447125171169354 13.529776050570774 1 -3 2
815 1 1 0.5897 3.5604373974572563 11.173115987402037 15.745680724861854 -3 8 -3
64 1 2 -1.1794 0.843442717058455 10.235164994341256 14.236986192754099 4 0 -3
459 1 1 0.5897 4.136662499949711 9.035990423437333 12.597541728464414 1 1 -2
76 1 2 -1.1794 4.840356196408511 11.363158279035476 13.977642674019096 -4 -5 -4
457 1 2 -1.1794 4.813875025337533 9.308442856225646 11.978279670618416 1 1 -2
579 1 1 0.5897 0.8533383392334508 11.57464146900855 18.36619062711095 3 1 -3
320 1 1 0.5897 4.262133623446153 7.874810793875731 17.419848188640422 2 -2 0
126 1 1 0.5897 1.2769701647163072 9.741709153804223 17.23218917894732 0 0 1
292 1 2 -1.1794 2.8174272188381915 9.019142444793129 19.732973462699697 -1 1 2
294 1 1 0.5897 3.6978809902258325 9.368242097834383 19.594102644430738 -1 1 2
499 1 2 -1.1794 1.4947344956897477 11.595900973189819 20.100664396584683 -2 -1 -3
500 1 1 0.5897 2.001456454973093 10.799953912742433 19.939294608496855 -2 -1 -3
293 1 1 0.5897 2.84440112390703 8.643017272542874 20.612822811508135 -1 1 2
814 1 2 -1.1794 3.6114216712777893 10.7412839083406 16.598486921022204 -3 8 -3
125 1 1 0.5897 1.7411577583115374 8.660681251015216 18.185131699287673 0 0 1
116 1 1 0.5897 2.405256890860586 7.9836886280402135 16.460836110399512 -1 -3 4
124 1 2 -1.1794 1.126766661423065 8.826725344675316 17.4700832731953 0 0 1
816 1 1 0.5897 3.4047251470666273 11.43087799215785 17.229433503678845 -3 8 -3
350 1 1 0.5897 0.837564860292602 12.76021505667874 4.381354150544727 -9 1 -3
493 1 2 -1.1794 3.8172251377055177 15.22651368809216 2.096765217144774 -1 -1 0
75 1 1 0.5897 3.997651890385964 13.041203888916904 5.834982903943288 0 0 2
495 1 1 0.5897 3.2269518956014998 15.26878586737895 2.8491960381342105 -1 -1 0
261 1 1 0.5897 2.2425461876168025 14.332025192163746 4.373272065215474 1 -2 6
302 1 1 0.5897 3.3311364625409188 13.844564573182186 1.2311508495881478 -1 2 8
349 1 2 -1.1794 1.5146261129601708 12.694194730221223 3.7078771071269667 -9 1 -3
259 1 2 -1.1794 2.2971993941096036 15.284860300167498 4.447324376272254 1 -2 6
260 1 1 0.5897 1.3885080704442618 15.570703029767683 4.541911340804782 1 -2 6
529 1 2 -1.1794 0.6934526166218287 14.311751613825676 1.5630145856752145 -1 -2 -5
303 1 1 0.5897 3.8520821890182053 12.475589011936393 1.6141278297963784 -1 2 8
494 1 1 0.5897 4.681602117437503 15.072478830831756 2.478196238839069 -1 -1 0
531 1 1 0.5897 1.1860130372371305 13.95507215550106 2.3022675555652787 -1 -2 -5
73 1 2 -1.1794 4.682119774620521 13.084361553389853 5.16717155893907 0 0 2
521 1 1 0.5897 1.1718551751795117 16.571070859722273 1.5234466187899063 -1 0 -2
144 1 1 0.5897 4.536654421674923 11.98649381280253 3.55200160808148 -2 4 3
301 1 2 -1.1794 3.369873083567493 12.937359514554647 0.9281438293887878 -1 2 8
26 1 1 0.5897 1.8198734057422001 12.617862177298795 7.485179447604726 -2 7 6
183 1 1 0.5897 2.4050139481439405 16.18011713124429 6.068759250222891 -4 1 -2
626 1 1 0.5897 2.4976393510299775 13.255495566264218 10.352111425372996 -4 -1 2
528 1 1 0.5897 4.338721279103636 16.11559427480598 9.367069092727043 -2 -4 0
627 1 1 0.5897 2.9465664253311243 14.366420434000627 9.426645477396026 -4 -1 2
625 1 2 -1.1794 2.164444664962212 13.913066714592857 9.741428108380388 -4 -1 2
258 1 1 0.5897 0.7632918052645643 14.279681310882 8.60564371453024 -1 -2 1
25 1 2 -1.1794 2.6815742719523286 12.55625015917848 7.072856360575635 -2 7 6
46 1 2 -1.1794 4.301755678715146 11.993166561899187 9.064095722276729 2 0 -1
702 1 1 0.5897 1.5054075602424204 15.486216760394667 10.800593986306334 5 0 2
48 1 1 0.5897 3.778979776759052 12.239598433456951 8.300998772837477 2 0 -1
526 1 2 -1.1794 4.689871347500476 15.232013910285993 9.256090957884984 -2 -4 0
42 1 1 0.5897 3.4336996036546243 12.105540345562963 12.652436925402917 0 -1 4
41 1 1 0.5897 2.1696089756711046 12.895445487280977 12.917579794475552 0 -1 4
585 1 1 0.5897 1.5885562211509356 12.242131751474792 14.745898354568999 3 -4 1
730 1 2 -1.1794 4.119570522921483 15.53519930128503 12.807653229665307 1 0 -5
807 1 1 0.5897 0.7028647268489923 16.095542099511867 13.90483068353381 3 -1 -3
584 1 1 0.5897 2.5086931563681363 13.407740004148721 15.040670551573369 3 -4 1
583 1 2 -1.1794 1.7055402100454988 13.176523769320422 14.573939754520755 3 -4 1
40 1 2 -1.1794 2.6948995306506722 12.522886652650566 12.209331619754666 0 -1 4
732 1 1 0.5897 3.2300973306274736 15.814500894024691 12.590467141013862 1 0 -5
806 1 1 0.5897 0.6679000465076006 14.582072081538595 13.922996691714738 3 -1 -3
516 1 1 0.5897 4.100989649310275 14.711781244445495 14.492494764178156 -3 -3 -1
514 1 2 -1.1794 4.132635516518455 14.334640658917095 15.371762757950098 -3 -3 -1
700 1 2 -1.1794 1.7774660890545764 16.190735548717313 11.38882618315417 5 0 2
701 1 1 0.5897 1.077124689127647 16.244237757173128 12.039208988834089 5 0 2
731 1 1 0.5897 4.342174662121883 14.89549761841317 12.131198243652355 1 0 -5
34 1 2 -1.1794 3.273800940835976 13.223944928848 18.15929382649602 -5 1 -2
35 1 1 0.5897 2.47720278876677 13.745747679865929 18.257054978737358 -5 1 -2
689 1 1 0.5897 1.597639785059366 15.080151128550733 20.92118961237649 3 -3 3
688 1 2 -1.1794 1.9921535055096775 15.764516082262773 20.38044928440089 3 -3 3
184 1 2 -1.1794 4.44209011766244 15.9599524390479 19.097707293631814 0 6 3
36 1 1 0.5897 3.9670715978676805 13.773526454319263 18.524904903782655 -5 1 -2
690 1 1 0.5897 1.2556265959355266 16.3159285569429 20.116105264925174 3 -3 3
186 1 1 0.5897 3.5688597254115684 16.09075402718022 19.46743519683043 0 6 3
407 1 1 0.5897 1.6260032625452931 15.452589935970286 17.09191965561419 -5 -2 3
408 1 1 0.5897 3.12061561342881 15.616785324652959 16.914798311069944 -5 -2 3
501 1 1 0.5897 2.0900222470982666 12.164468306859545 20.5892448347962 -2 -1 -3
406 1 2 -1.1794 2.295111782105561 16.099046811638257 16.866678536280332 -5 -2 3
67 1 2 -1.1794 4.789413398043039 17.88273900935808 5.424732423457333 3 -2 -4
723 1 1 0.5897 3.7578610405967514 17.25294198920429 1.9245064065528128 1 -1 1
520 1 2 -1.1794 1.3493737104614083 17.26091217259403 2.1629298008477598 -1 0 -2
127 1 2 -1.1794 2.4761698422528386 20.07594089790474 3.1887220371181813 -1 -1 -4
719 1 1 0.5897 1.9194903999642503 19.325342663412073 4.783450211315315 5 4 0
721 1 2 -1.1794 4.195324054335066 18.0723925575829 2.1557197101280594 1 -1 1
718 1 2 -1.1794 1.5736410514702164 19.195120185376624 5.666497925582075 5 4 0
128 1 1 0.5897 3.103037554018962 19.40987939387705 2.9063447929013204 -1 -1 -4
129 1 1 0.5897 3.0166717701808823 20.767953570530878 3.5699212400679805 -1 -1 -4
551 1 1 0.5897 4.555722419081544 21.67694184774992 1.5646397837029697 -2 6 -4
756 1 1 0.5897 0.8128670046015933 20.103162231201026 2.5261230666103502 -2 -2 -4
550 1 2 -1.1794 4.801461409249536 20.822283566155136 1.2103514668193331 -2 6 -4
722 1 1 0.5897 4.584998288112358 18.37607197077839 1.335789191667529 1 -1 1
68 1 1 0.5897 4.025992475701395 18.37526005304226 5.123166101193944 3 -2 -4
522 1 1 0.5897 0.833027262357801 17.015178845948576 2.9306104271497495 -1 0 -2
196 1 2 -1.1794 3.943107541888082 21.735274960612713 4.798208300476772 -2 -2 0
858 1 1 0.5897 4.717662692990869 18.19177358321542 8.154303472861175 0 1 -3
135 1 1 0.5897 3.695412810694937 20.960030068243046 8.03989508043506 1 -5 -2
134 1 1 0.5897 3.7785511025723557 21.134065694426376 6.538246470611287 1 -5 -2
593 1 1 0.5897 3.239448350755244 21.041858051957078 9.9115951275195 -1 -1 -2
182 1 1 0.5897 1.969949073694956 17.611028452497777 6.304062999622384 -3 1 -2
177 1 1 0.5897 2.9585905434028508 18.924484107323284 10.405563760314694 -1 -4 7
856 1 2 -1.1794 4.004267210665562 17.75648390484571 8.621127967660561 0 1 -3
857 1 1 0.5897 3.444959644855445 17.403293812291157 7.929197091099645 0 1 -3
720 1 1 0.5897 2.0504595281145592 19.825602380970366 6.206381570748099 5 4 0
175 1 2 -1.1794 2.0807753331573444 18.90460384683963 10.786883272028941 -1 -4 7
133 1 2 -1.1794 3.2214164871978137 20.775232423690706 7.229024266883943 1 -5 -2
592 1 2 -1.1794 4.1915205893199445 21.07900027573112 9.8192919699364 -1 -1 -2
176 1 1 0.5897 1.909510854688717 17.97644084207478 10.946699631160438 -1 -4 7
32 1 1 0.5897 1.1757930296593897 21.598804275396596 8.957988287150094 3 7 1
150 1 1 0.5897 1.0793743575954653 17.24020661982547 8.097607526185843 -4 -1 2
181 1 2 -1.1794 2.2776533341912177 16.828439481829086 6.7614694106249225 -4 1 -2
715 1 2 -1.1794 2.0206224722752513 17.22986378925271 14.312296731909015 5 -8 -5
717 1 1 0.5897 1.3100611225284826 17.858141535028512 14.183056293200794 5 -8 -5
366 1 1 0.5897 3.639385039859091 18.14354395093778 14.920328423482717 2 4 2
809 1 1 0.5897 1.9217610347539296 20.958587843908333 12.779131641927641 3 -1 -1
808 1 2 -1.1794 2.8326539046607926 20.847068394939665 13.051487854883815 3 -1 -1
384 1 1 0.5897 1.0237513404474665 20.14354192696135 11.60960581370054 -7 -2 -2
810 1 1 0.5897 3.079735516987686 19.98532809395584 12.715798568288584 3 -1 -1
365 1 1 0.5897 4.501370254424297 18.38430662293162 16.14147301970024 2 4 2
427 1 2 -1.1794 1.7367714745147742 20.406232414286826 15.881007104445821 1 0 -2
364 1 2 -1.1794 3.949772655483979 18.83665637549837 15.50312775542918 2 4 2
428 1 1 0.5897 2.025830008640888 20.56089104016701 14.981635162123705 1 0 -2
358 1 2 -1.1794 4.710240543077854 21.67628433959336 16.21029117892912 3 -1 -5
359 1 1 0.5897 4.035645790537698 21.204229270782104 15.722001292448004 3 -1 -5
429 1 1 0.5897 2.3048171992203965 19.704091142057454 16.198284464055696 1 0 -2
716 1 1 0.5897 2.0252672692469993 17.06334960296134 15.254956891297144 5 -8 -5
738 1 1 0.5897 3.5930433243913082 19.73168641692844 18.303957723545295 1 -1 -1
737 1 1 0.5897 4.583217453484244 20.810144590744155 17.918405715999583 1 -1 -1
61 1 2 -1.1794 2.3063628222627317 19.478186947199962 20.725477696473927 -2 -1 3
834 1 1 0.5897 1.8233341855311098 17.820021900338105 17.92069347826601 4 -2 0
736 1 2 -1.1794 4.3964258878289275 20.161647067622006 18.59730183489 1 -1 -1
832 1 2 -1.1794 2.3526450810788946 18.58236470776383 18.15524103084332 4 -2 0
833 1 1 0.5897 2.2172667336675724 18.687982645561434 19.09697680275851 4 -2 0
432 1 1 0.5897 3.35202113393393 21.48421752464574 19.5058488288501 -7 -3 -3
63 1 1 0.5897 2.843770136429733 20.078186204776017 21.242714020318882 -2 -1 3
84 1 1 0.5897 4.838646581450585 17.436579369488197 20.04095443445842 -4 -3 -7
519 1 1 0.5897 0.6686336569474634 19.77006197999836 17.984516190791993 -1 -3 -4
62 1 1 0.5897 1.9562007881567114 18.857739814061084 21.36483194321083 -2 -1 3
433 1 2 -1.1794 5.709280374051409 5.438670100822003 2.400491106455183 0 2 0
435 1 1 0.5897 6.504832352589941 5.897424574377551 2.130336454478075 0 2 0
281 1 1 0.5897 6.811286491375761 4.073456449654402 2.8706078328906415 -2 0 1
280 1 2 -1.1794 7.573720875513587 3.5169927234027476 3.029923183540238 -2 0 1
282 1 1 0.5897 8.109943721173337 3.6135143621429666 2.242844075102685 -2 0 1
434 1 1 0.5897 5.147652928248552 6.124540586546195 2.7617321360002482 0 2 0
653 1 1 0.5897 8.60265105406264 3.9327433042817295 4.556347083625258 0 0 0
252 1 1 0.5897 8.445027918566073 6.146261648913171 4.619299518414333 5 -3 2
711 1 1 0.5897 6.979364069466201 2.0052481255407693 3.689682984652065 -5 -3 -1
652 1 2 -1.1794 8.93250356064786 4.286559484719641 5.382392267469172 0 0 0
375 1 1 0.5897 8.987184357381286 6.1873898892104595 2.068620612345597 3 6 1
333 1 1 0.5897 7.513889540351207 2.7676918664521017 10.075441527235286 0 -2 -4
817 1 2 -1.1794 8.148794041330621 5.745110339537273 7.981800996787855 3 0 2
443 1 1 0.5897 6.179577219628089 3.1493786359371416 7.024662790991628 5 5 -2
442 1 2 -1.1794 5.6723526568698555 3.9522430207530475 6.904337330170789 5 5 -2
469 1 2 -1.1794 5.773746949540914 6.232176153364286 9.452357004788642 3 -4 4
444 1 1 0.5897 6.207726636047024 4.489024979134387 6.319889006399339 5 5 -2
819 1 1 0.5897 8.29137011509371 5.439716607557033 7.085844233577218 3 -1 2
470 1 1 0.5897 6.575706185363279 5.984939363622579 8.991845962986744 3 -4 4
331 1 2 -1.1794 8.082366707361345 3.462778681055412 9.743727596770489 0 -2 -4
471 1 1 0.5897 5.4174309669567915 5.404416753406602 9.775147601038038 3 -4 4
818 1 1 0.5897 8.478022602517884 5.034866240022326 8.532703510911837 3 0 2
332 1 1 0.5897 8.718903179101142 3.6068978143477346 10.444010354959754 0 -2 -4
29 1 1 0.5897 8.522146561016152 3.566174193566852 15.361556070138922 -9 0 5
813 1 1 0.5897 6.782422059991283 5.345369111136445 13.791882693311626 -7 6 -3
811 1 2 -1.1794 7.4791417546478085 5.299332025466654 13.137056558657916 -7 6 -3
28 1 2 -1.1794 8.696401092924983 2.8117097818606656 14.798746557207602 -9 0 5
812 1 1 0.5897 7.288278433772052 6.016731066409181 12.53269806887177 -7 6 -3
847 1 2 -1.1794 5.243650659170386 5.86264384005197 14.741371659656586 3 -2 5
699 1 1 0.5897 8.804063661192453 4.246383277752402 12.29531616407129 -1 5 -4
345 1 1 0.5897 6.215431604629804 2.253073940787343 12.878826568902976 -1 1 -2
344 1 1 0.5897 7.57568568155668 2.1546987516129503 13.536334961261325 -1 1 -2
360 1 1 0.5897 4.9031897300182194 2.4955635758111345 15.672023347168917 3 0 -5
764 1 1 0.5897 8.808819330627916 5.185045104510635 14.615876986894046 -6 1 -3
849 1 1 0.5897 5.44352059967732 6.787924022368542 14.883662277659102 3 -2 5
147 1 1 0.5897 8.423315824895194 2.751375192014159 18.129744805890155 -1 1 -4
539 1 1 0.5897 6.867115761674723 3.2969190899670444 16.85376568345179 -3 -4 0
447 1 1 0.5897 5.05659835685241 3.126555249922259 20.16898930716339 3 0 -2
677 1 1 0.5897 9.058127914436788 3.826562936899685 20.115677739811137 2 1 -3
675 1 1 0.5897 6.225616718984798 6.726008372265438 19.052525766485623 -3 -2 -3
538 1 2 -1.1794 6.894754920716535 4.236087748750272 16.67058353279347 -3 -4 0
674 1 1 0.5897 6.039759032950725 5.257357624139216 19.36980916285299 -3 -2 -3
673 1 2 -1.1794 6.589545315769987 6.012986249691267 19.577397967771372 -3 -2 -3
414 1 1 0.5897 8.043803091586668 6.015680599644937 17.354722886296454 0 -2 4
678 1 1 0.5897 8.111028468527799 4.820837490527983 19.478045436771268 2 1 -3
445 1 2 -1.1794 5.87468590721683 3.5329861695327223 20.45515369393077 2 0 -2
540 1 1 0.5897 5.982934094783646 4.520188687112704 16.735413038529124 -3 -4 0
145 1 2 -1.1794 8.062745427417138 1.9900122857803406 17.675141764814185 -1 1 -4
676 1 2 -1.1794 8.804319617958031 4.194658561293118 19.269263097948958 2 1 -3
446 1 1 0.5897 5.625260439236265 4.071500027807245 21.20625911418637 2 0 -2
412 1 2 -1.1794 8.444382680629847 6.826206910020201 17.04021157918839 0 -2 4
342 1 1 0.5897 7.280395179169688 2.056758202174006 20.80492095950902 4 5 1
490 1 2 -1.1794 6.267674273872065 10.081178704429478 5.724310962702697 0 4 4
491 1 1 0.5897 5.418134345719977 9.893286888112952 5.325161054671352 0 4 4
163 1 2 -1.1794 5.834017153865403 9.109643297682528 1.5328692114471352 -2 2 0
165 1 1 0.5897 5.870392246294411 9.683805649934738 2.2979940884085206 -2 2 0
250 1 2 -1.1794 7.907705427143963 6.938362006757107 4.633441749240162 5 -3 2
774 1 1 0.5897 7.100476588153828 7.813126982060234 1.3765324219024548 2 -5 3
352 1 2 -1.1794 5.199794789652133 7.092354094144743 4.900769203724587 3 3 -1
104 1 1 0.5897 7.886462596270969 11.205432340388905 4.649327633279469 3 0 6
251 1 1 0.5897 8.139058233159503 7.370663823406669 5.455591105568196 5 -3 2
772 1 2 -1.1794 7.675598701494029 7.0486934343820495 1.34156065899172 2 -5 3
353 1 1 0.5897 6.140409524060193 7.269765343849659 4.890587835788338 3 3 -1
12 1 1 0.5897 7.652339546158035 11.053106250096507 1.3581073306858333 -4 0 6
103 1 2 -1.1794 8.809513841391913 11.426827071609026 4.525620968303214 3 0 6
10 1 2 -1.1794 7.436822824324681 11.786976512486508 1.9337425995206967 -4 0 6
164 1 1 0.5897 5.06018704004591 8.565153969239642 1.678011480033407 -2 2 0
94 1 2 -1.1794 8.999888622129593 9.54838803832121 0.7874844463791035 -4 0 -1
713 1 1 0.5897 5.784550220465854 8.623928103695302 8.89862542267292 -5 -1 3
492 1 1 0.5897 6.180278368645784 9.778579088865822 6.628296678461311 0 4 4
714 1 1 0.5897 6.428940252679601 9.979256892515338 9.0986322281016 -5 -1 3
318 1 1 0.5897 8.210965001652443 9.206735694193387 9.58259185904435 -7 -5 0
760 1 2 -1.1794 8.860638158472819 8.502520779863726 6.757296342034 0 -3 -2
761 1 1 0.5897 7.991539761604405 8.507968220354757 7.15853433040403 0 -3 -2
107 1 1 0.5897 6.642263269122711 7.018257497138545 10.690002223163445 -1 0 3
316 1 2 -1.1794 9.020763974285133 9.04002669602524 10.065069402647087 -7 -5 0
712 1 2 -1.1794 6.45217957575204 9.20574657643223 8.535180361504452 -5 -1 3
508 1 2 -1.1794 6.941383404027567 10.962104838144425 10.599178530076278 4 -2 3
509 1 1 0.5897 6.512292784390489 11.764455936810533 10.896630893078905 4 -2 3
330 1 1 0.5897 8.383891368149136 11.622932055463968 7.895388626456737 3 4 0
329 1 1 0.5897 9.061208661327443 10.411350527542991 7.290846973759731 3 4 0
468 1 1 0.5897 7.941869524202484 10.612110451090992 13.979535886983468 3 -3 5
510 1 1 0.5897 7.224618912829414 10.528738383217025 11.404351178618077 4 -2 3
458 1 1 0.5897 5.638586410222087 9.105780821283304 12.420005600121815 1 1 -2
236 1 1 0.5897 6.948725069913451 8.520766337364641 14.403833976090583 -1 -3 -4
466 1 2 -1.1794 7.516512092874911 9.993681146366423 13.38544010008426 3 -3 5
235 1 2 -1.1794 6.459776872901031 8.237368208824709 15.176457951132571 -1 -3 -4
106 1 2 -1.1794 7.128145075123491 7.308517974380588 11.46201914841375 -1 0 3
78 1 1 0.5897 5.364041982181873 10.643077957759015 13.626116447863375 -4 -5 -4
467 1 1 0.5897 8.131548503807554 9.263184954936403 13.318800027273 3 -3 5
237 1 1 0.5897 6.230966444527518 9.05030105834173 15.627192371958836 -1 -3 -4
640 1 2 -1.1794 8.883258864037542 10.882403909640235 15.888314984342703 3 1 -4
108 1 1 0.5897 7.78634899327108 7.912618855548454 11.11823552777098 -1 0 3
99 1 1 0.5897 5.891132488211971 10.523222725120837 19.381522698438236 2 -6 6
620 1 1 0.5897 6.854369467170004 11.083579851804 17.20861718031646 -1 -1 2
642 1 1 0.5897 9.006284513596507 10.593171215544166 16.792497396912367 3 1 -4
621 1 1 0.5897 5.453394970506588 10.668627687997041 16.811942143654576 -1 -1 2
704 1 1 0.5897 9.091151864628909 7.467853578589465 18.492807522856495 4 -1 -2
321 1 1 0.5897 5.401456258575996 8.725104114015474 17.940516601049666 2 -2 0
773 1 1 0.5897 7.8460508415192605 6.919089994148617 21.070503026973473 2 -5 2
619 1 2 -1.1794 6.309191646123782 10.312628020320835 17.051208891473035 -1 -1 2
98 1 1 0.5897 5.427868354490048 10.11052939161409 20.762558707988116 2 -6 6
319 1 2 -1.1794 5.017168368735684 7.8509580474967064 18.007797806782833 2 -2 0
97 1 2 -1.1794 5.101772110565429 10.378331089877031 19.903314677256798 2 -6 6
413 1 1 0.5897 7.731747918356052 7.292062519294822 16.602648743259174 0 -2 4
96 1 1 0.5897 8.904333332825527 8.886617308158838 20.764382842888615 -4 0 -2
20 1 1 0.5897 8.139780033564453 14.417929583515765 5.743904125101514 -5 -2 1
11 1 1 0.5897 8.194985665527287 12.368500454192777 1.875401354256374 -4 0 6
19 1 2 -1.1794 7.609633044869565 13.677404148735366 5.449094062239487 -5 -2 2
21 1 1 0.5897 8.24074489278339 13.067753854624211 5.066402037959382 -5 -2 2
288 1 1 0.5897 6.8532285817564125 14.305808446396648 3.86505862083626 3 0 2
286 1 2 -1.1794 6.501734084293694 14.724669762489679 3.079331568284025 3 0 2
287 1 1 0.5897 7.180937086744848 14.599642017882502 2.416425285233096 3 0 2
497 1 1 0.5897 6.717687932732062 16.491820335132076 3.153952108478696 2 0 1
830 1 1 0.5897 8.767226235250336 15.487268571022996 1.2000574054116069 3 3 4
74 1 1 0.5897 5.190896774498114 13.86257480153832 5.394911210564056 0 0 2
143 1 1 0.5897 5.646128981761992 11.832303794094475 2.5334490593914047 -2 4 3
380 1 1 0.5897 5.922467201298937 13.906295695187232 10.874304822019115 8 3 0
775 1 2 -1.1794 6.706120828674318 12.41034635700111 8.086706872128648 4 -4 0
385 1 2 -1.1794 5.428398821197778 15.409017715765877 6.457850336754953 -3 0 2
776 1 1 0.5897 6.885765407237354 12.922665125700462 7.298297730295055 4 -4 0
505 1 2 -1.1794 8.315772092607663 16.01216067117747 6.683468420055623 3 2 -3
386 1 1 0.5897 6.373099066419729 15.548263360684649 6.390894613867675 -3 0 2
845 1 1 0.5897 8.75654408086831 12.657412543319799 10.42973579870667 1 -1 4
777 1 1 0.5897 7.108218910911934 12.912163297635873 8.795814287544554 4 -4 0
47 1 1 0.5897 5.204935274109354 11.994558433825283 8.746875095527578 2 0 -1
844 1 2 -1.1794 8.372126704835646 13.46721488483544 10.093799669371784 1 -1 4
506 1 1 0.5897 8.97525910134652 15.496551866168854 7.147775968698879 3 2 -3
527 1 1 0.5897 4.994609155859897 15.207043373886698 8.348979192701822 -2 -4 0
387 1 1 0.5897 5.042417552713692 16.226768664239025 6.143786200252616 -3 0 2
168 1 1 0.5897 6.279792570913272 16.704597497627358 9.794094890281258 -1 -1 4
846 1 1 0.5897 9.022591877890369 13.80407805929448 9.477549028475915 1 -1 4
381 1 1 0.5897 4.87821492744798 12.83488723547353 10.642405257012165 8 3 0
283 1 2 -1.1794 7.516458117075097 15.258051388817305 11.895709296061218 5 0 -2
263 1 1 0.5897 6.7190109672535625 13.577776464674411 13.249116806682778 3 -2 6
157 1 2 -1.1794 8.862990526964843 16.249630794769896 14.88363576361211 2 2 -2
264 1 1 0.5897 7.074465644446356 13.38128266139524 14.70760582427841 3 -2 6
158 1 1 0.5897 8.850746547239954 15.816693528765027 15.737305275620603 2 2 -2
545 1 1 0.5897 5.626277288118356 16.620968155630678 13.415264254924397 -4 4 4
262 1 2 -1.1794 7.167534948399644 12.977428878721657 13.844717187955357 3 -2 6
285 1 1 0.5897 8.184250575144162 15.85189432248948 12.238841898461184 5 0 -2
159 1 1 0.5897 7.9493535910330815 16.24297280644361 14.59803488680716 2 2 -2
77 1 1 0.5897 5.451524578225042 12.097496449734404 14.037438076970247 -4 -5 -4
515 1 1 0.5897 5.0664747319696515 14.272632160989566 15.57283839001396 -3 -3 -1
685 1 2 -1.1794 6.770276000813505 14.756427655051464 16.189728552605793 8 -5 -3
284 1 1 0.5897 8.005143173023914 14.627054021499541 11.367158998660026 5 0 -2
379 1 2 -1.1794 5.535826035658164 13.12697936562721 11.27372596837173 8 3 0
185 1 1 0.5897 4.883992552640058 15.385638412913908 19.723241636885916 0 6 3
824 1 1 0.5897 6.589086153241579 12.970398819998401 18.555845117279414 -2 5 1
120 1 1 0.5897 5.001770488236697 13.163574226445085 20.62597635449561 3 -3 -1
686 1 1 0.5897 6.503247936241833 15.490348490380908 16.743253920111155 8 -5 -3
194 1 1 0.5897 7.87484339019097 15.696896475357953 19.650752633866265 4 -5 -1
118 1 2 -1.1794 5.707495118446277 13.576861510942493 20.128498573103084 3 -3 -1
687 1 1 0.5897 6.925166518527587 14.037551912573791 16.80255879334347 8 -5 -3
119 1 1 0.5897 6.488388297636297 13.447354368036624 20.666841024383892 3 -3 -1
193 1 2 -1.1794 7.716715613808619 16.210299177893177 18.858438971612088 4 -5 -1
823 1 2 -1.1794 7.30180039627596 12.757435123389312 17.953314846691114 -2 5 1
825 1 1 0.5897 8.09434150919515 12.823488556477756 18.48611955148022 -2 5 1
831 1 1 0.5897 8.958583777285082 14.249901438077622 21.010848488318207 3 3 3
564 1 1 0.5897 9.04558422553432 15.499845063524019 17.900811214911357 2 1 3