LAMMPS (30 Jul 2021)
  using 1 OpenMP thread(s) per MPI task
package omp 0
using multi-threaded neighbor list subroutines
echo both

include		in.partitions
variable        pid world 0
include		in.temp
variable        temperature equal 256.15
variable	tempDamp equal 100.0
include		in.pressure
variable        pressure equal 6500.0
variable        pressureDamp equal 1000.0 # This is 1 ps
include		in.seed
variable        seed world 745823

units		real
atom_style	full
read_restart    restart.lmp.${pid}
read_restart    restart.lmp.0
Reading restart file ...
  restart file = 30 Jul 2021, LAMMPS = 30 Jul 2021
  restoring atom style full from restart
  triclinic box = (-3.2628205 -0.12240018 -0.14746847) to (14.872820 22.702399 19.377466) with tilt (-0.22829239 -6.5986518 0.25169016)
  4 by 4 by 4 MPI processor grid
  restoring pair style lj/cut/tip4p/long/omp from restart
  restoring bond style harmonic/omp from restart
  restoring angle style harmonic/omp from restart
  1008 atoms
  672 bonds
  336 angles
Finding 1-2 1-3 1-4 neighbors ...
  special bond factors lj:    0        0        0       
  special bond factors coul:  0        0        0       
     2 = max # of 1-2 neighbors
     1 = max # of 1-3 neighbors
     1 = max # of 1-4 neighbors
     2 = max # of special neighbors
  special bonds CPU = 0.655 seconds
  read_restart CPU = 0.985 seconds

include 	in.setup
variable	out_freq equal 1000
variable	out_freq2 equal 10000
variable	out_freq3 equal 1000

timestep	2.0

neigh_modify    delay 7 every 1

include		in.tip4p
# This is TIP4P/Ice

# create groups ###
group ox type 2
336 atoms in group ox
group hy type 1
672 atoms in group hy

# set charges - beside manually ###
set group ox charge -1.1794
Setting atom values ...
  336 settings made for charge
set group hy charge 0.5897
Setting atom values ...
  672 settings made for charge

# ### TIP3P Potential Parameters ###
pair_style lj/cut/tip4p/long/omp 2 1 1 1 0.1577 8.5
pair_coeff 1 1*2 0.000 0.000
pair_coeff 2 2 0.21084 3.1668
bond_style  harmonic
bond_coeff  1 450 0.9572
angle_style harmonic
angle_coeff 1 55 104.52
kspace_style pppm/tip4p/omp 1.0e-5
pair_modify tail yes

thermo          ${out_freq}
thermo          1000
thermo_style    custom step temp pe etotal epair emol press lx ly lz vol pxx pyy pzz pxy pxz pyz enthalpy

restart 	${out_freq3} restart.lmp.${pid} restart2.lmp.${pid}
restart 	1000 restart.lmp.${pid} restart2.lmp.${pid}
restart 	1000 restart.lmp.0 restart2.lmp.${pid}
restart 	1000 restart.lmp.0 restart2.lmp.0


include         in.dump
dump            myDump all atom ${out_freq2} dump.water.${pid}
dump            myDump all atom 10000 dump.water.${pid}
dump            myDump all atom 10000 dump.water.0
dump            myDump2 all dcd ${out_freq2} dump.dcd
dump            myDump2 all dcd 10000 dump.dcd
dump_modify     myDump append yes
dump_modify     myDump2 append yes


variable natoms 	equal  "count(all)"                        # NUMBER ATOMS
variable H      	equal  "enthalpy/v_natoms"                 # ENTHALPY-per-atom
variable Vol      	equal  "vol/v_natoms"                 # volume-per-atom
fix AVG all 		ave/time ${out_freq} 1 ${out_freq} v_Vol v_H file vol_enthalpy.dat
fix AVG all 		ave/time 1000 1 ${out_freq} v_Vol v_H file vol_enthalpy.dat
fix AVG all 		ave/time 1000 1 1000 v_Vol v_H file vol_enthalpy.dat



fix 		1 all shake 1e-6 200 0 b 1 a 1
       0 = # of size 2 clusters
       0 = # of size 3 clusters
       0 = # of size 4 clusters
     336 = # of frozen angles
  find clusters CPU = 0.002 seconds
fix             2 all nph tri ${pressure} ${pressure} ${pressureDamp}
fix             2 all nph tri 6500 ${pressure} ${pressureDamp}
fix             2 all nph tri 6500 6500 ${pressureDamp}
fix             2 all nph tri 6500 6500 1000
fix             3 all temp/csvr ${temperature} ${temperature} ${tempDamp} ${seed}
fix             3 all temp/csvr 256.15 ${temperature} ${tempDamp} ${seed}
fix             3 all temp/csvr 256.15 256.15 ${tempDamp} ${seed}
fix             3 all temp/csvr 256.15 256.15 100 ${seed}
fix             3 all temp/csvr 256.15 256.15 100 745823


run             250000
PPPM initialization ...
  extracting TIP4P info from pair style
  using 12-bit tables for long-range coulomb (../kspace.cpp:340)
  G vector (1/distance) = 0.37916386
  grid = 24 27 36
  stencil order = 5
  estimated absolute RMS force accuracy = 0.0024398647
  estimated relative force accuracy = 7.3475801e-06
  using double precision FFTW3
  3d grid and FFT values/proc = 4050 480
Last active /omp style is kspace_style pppm/tip4p/omp
Neighbor list info ...
  update every 1 steps, delay 7 steps, check yes
  max neighbors/atom: 2000, page size: 100000
  master list distance cutoff = 10.8154
  ghost atom cutoff = 10.8154
  binsize = 5.4077, bins = 5 5 4
  1 neighbor lists, perpetual/occasional/extra = 1 0 0
  (1) pair lj/cut/tip4p/long/omp, perpetual
      attributes: half, newton on, omp
      pair build: half/bin/newton/tri/omp
      stencil: half/bin/3d/tri
      bin: standard
Per MPI rank memory allocation (min/avg/max) = 9.326 | 9.338 | 9.351 Mbytes
Step Temp PotEng TotEng E_pair E_mol Press Lx Ly Lz Volume Pxx Pyy Pzz Pxy Pxz Pyz Enthalpy 
 2250000     263.9203   -4807.5128   -4279.6395   -4807.5128            0    5196.3851     18.13564    22.824799    19.524935    8082.1974    6088.8752    5623.1572     3877.123   -144.75969    31.994451    127.92601   -3667.1387 
 2251000    265.39761   -4848.1192   -4317.2912   -4848.1192            0    6556.9684    18.226931    22.808179    19.329858    8035.8687    5419.7948    6111.5001    8139.6104    595.19826   -669.05377     657.0117   -3548.8479 
 2252000    244.77753   -4798.8323    -4309.247   -4798.8323            0    5880.4264    18.055428    22.728289    19.627031    8054.3248    6348.9535    5760.5259    5531.7997    -433.4003   -1470.2567   -1722.4191   -3618.5082 
 2253000    259.74175   -4832.3774   -4312.8618   -4832.3774            0    6731.3454    18.134076    22.794381    19.296126    7976.1511    6697.6935    7127.5898     6368.753    1216.8223   -100.57867   -1089.3805   -3529.8449 
 2254000    247.24128   -4846.2929   -4351.7798   -4846.2929            0    6615.2997    17.983509    22.934732    19.454237    8023.8409    8138.4327    7198.8362    4508.6303    156.89442    1141.6456   -988.75709   -3577.6608 
 2255000    265.19489   -4835.6217   -4305.1992   -4835.6217            0    7801.3648    18.115335    22.857422    19.192254    7946.9337     6607.036    8213.1145    8583.9437   -1107.0646   -8.5845629   -1769.3811   -3401.0376 
 2256000    257.25599   -4813.9976   -4299.4539   -4813.9976            0    5653.9785    17.918294    23.393005    19.210192    8052.1966     5584.906    4958.8632    6418.1663    662.72623   -577.17357    1591.1232   -3635.4901 
 2257000    266.79796   -4849.7995   -4316.1706   -4849.7995            0    4792.3464     17.92751    23.104786    19.406457    8038.3734    4735.3885    4845.6727    4795.9778   -502.79167    219.94609   -2055.2572    -3754.357 
 2258000    249.96722   -4806.9945   -4307.0292   -4806.9945            0    6740.2182    17.966742    23.254019    19.182957    8014.6193    7496.7046    5283.2853    7440.6648    -74.30043    -1530.781   -1559.8411   -3519.1988 
 2259000    262.21811    -4801.966   -4277.4973    -4801.966            0     6828.745    17.778486    23.358195    19.327337    8026.1278    6226.0972    6277.8861    7982.2516     134.9672    69.252022   -340.23454   -3478.1733 
 2260000    255.41124   -4804.0189   -4293.1649   -4804.0189            0     4851.598    18.059518    23.166359    19.218894    8040.6715    5731.2375    3440.4618    5383.0947    1938.0045   -824.74052    946.87994   -3724.2425 
 2261000    255.43802   -4831.1352   -4320.2276   -4831.1352            0    6156.9284    18.032296    22.948638    19.413563    8033.6554    7025.6349    6036.2212     5408.929    -635.2963    206.03658   -1459.2524   -3598.8658 
 2262000    260.39608    -4783.153   -4262.3287    -4783.153            0    5465.5659    18.171113     22.85858    19.322711    8025.9941    4896.0476    5887.8446    5612.8056    922.76249   -53.146339    1721.2525   -3622.5793 
 2263000    263.97539   -4797.0893   -4269.1059   -4797.0893            0    7893.6501    17.991582    23.041151    19.265876    7986.6066    7963.1144    7585.1343    8132.7016    939.66002    655.28373    -376.4436   -3349.6815 
 2264000    249.56433   -4813.5127   -4314.3532   -4813.5127            0    7720.1612    18.168839    23.071713    19.092512    8003.3182    7560.4821     7369.226    8230.7755    639.30736     920.4268     1010.099   -3413.2546 
 2265000    259.90652   -4834.3366   -4314.4914   -4834.3366            0    6071.9626    17.904656    22.998389    19.485993    8023.9078     7440.299    6481.9694    4293.6194    1365.5317   -390.91607    806.00835   -3603.9475 
 2266000    258.27867   -4818.2934   -4301.7042   -4818.2934            0    5771.1825    18.091702    23.278019    19.081632    8036.0189    3559.1846    5480.6139    8273.7489   -955.30879   -1334.9573   -3160.9427   -3625.3384 
 2267000    253.93795   -4818.5191   -4310.6119   -4818.5191            0    5003.5123    18.060616    23.056589    19.346007    8055.9907    6487.2654    3377.5196    5145.7518    402.82008   -2692.9514    1200.3955   -3722.7574 
 2268000    256.74636   -4852.1675   -4338.6431   -4852.1675            0    5303.4193    17.928093     23.12913    19.336353    8018.0355    5665.0395    5060.7643    5184.4541   -615.46875   -1056.1931   -283.20863   -3718.4887 
 2269000    259.07512   -4824.7108   -4306.5286   -4824.7108            0    8237.7049     18.00446    23.087973    19.114933    7945.8194    8196.5116    8901.8144    7614.7888    989.42508    821.86314    1086.2538     -3351.93 
 2270000    255.65282     -4826.96   -4315.6228     -4826.96            0    5014.1775    17.945708    23.013781     19.46518     8039.092    4103.9023    5626.4714    5312.1587    425.07753    1446.8571    290.09051    -3727.751 
 2271000    259.31194   -4846.4522   -4327.7963   -4846.4522            0    6855.8895    18.037258    23.035617    19.187468    7972.3811    7468.4739    6131.7122    6967.4825    2173.8304   -287.35182    1101.4202   -3530.6689 
 2272000    251.22856   -4804.8185   -4302.3304   -4804.8185            0    7137.5926    17.887552    23.076318    19.360106    7991.4417    8371.9121    6047.3051    6993.5606   -120.58254    292.81427   -1829.6007   -3470.4655 
 2273000    247.24801   -4831.3467   -4336.8202   -4831.3467            0    4845.9317    17.879786    23.257863    19.369436    8054.6954    4711.7377    5149.1769    4676.8804   -1663.6379   -92.418638   -17.748314   -3767.5711 
 2274000    265.92979    -4800.783   -4268.8906    -4800.783            0    6237.9993    18.038161    23.053437    19.285884    8019.8731    6314.3955    6646.4341    5753.1684    97.238728   -887.14794    483.86199   -3539.2841 
 2275000    270.12443   -4814.0243   -4273.7421   -4814.0243            0    7245.9255    17.764332     23.05134    19.394654    7941.9492     8785.968    6454.9573    6496.8511    1090.4936   -1288.1153   -1322.9575   -3434.4814 
 2276000     259.7889   -4811.6831   -4292.0733   -4811.6831            0    6790.2146    17.911683    23.268102     19.21136    8006.7348    7672.3446    6016.1591    6682.1402    1143.1966     43.16672    2209.8241   -3499.1798 
 2277000    264.47443   -4802.6945    -4273.713   -4802.6945            0    6754.0702    17.858467    23.176143    19.352937    8009.9944    6039.1011    6054.1425    8168.9669   -1093.8106   -744.83505    408.92084    -3484.719 
 2278000    250.77974   -4829.3689   -4327.7785   -4829.3689            0    3766.5198    17.954107     23.17172    19.431128    8083.8845    5776.8509    3128.4695    2394.2389   -418.16332   -1224.6051     934.3909    -3883.724 
 2279000    250.07791   -4814.6623   -4314.4756   -4814.6623            0    6440.0102    17.920586    23.169514    19.343222    8031.5238    8221.8808    5112.3159     5985.834   -859.14125    -424.8228   -777.43142   -3560.1473 
 2280000    267.50837   -4817.7581   -4282.7083   -4817.7581            0    6161.6537    17.946779    23.044633    19.349849    8002.6511    6403.3039    6767.0299    5314.6272    661.76038     733.1784    1908.6184   -3563.5789 
 2281000     250.4194   -4787.1903   -4286.3205   -4787.1903            0    5323.2808    18.180609    23.177107     19.15519    8071.4976    4293.9193    5064.9059     6611.017    270.42657    340.95052    986.75582   -3659.6931 
 2282000    265.42727   -4823.9091   -4293.0217   -4823.9091            0    5341.1248    17.888123    23.030132    19.457906    8015.9927     5993.014    5394.3902    4635.9703    428.61621   -83.734723     484.2673   -3668.6174 
 2283000     266.2632   -4827.7834   -4295.2241   -4827.7834            0    7646.5433    18.311098    22.767977    19.049327    7941.7911     6441.583     8938.723    7559.3238    -817.4516   -186.99759   -1673.5057   -3409.5795 
 2284000    259.92341    -4868.321   -4348.4421    -4868.321            0     5220.997    18.009823      22.7438    19.641679    8045.4632    5117.1695    6669.8615    3875.9599    272.05903    229.55574    745.12162   -3735.8373 
 2285000    250.05727   -4847.4607   -4347.3152   -4847.4607            0    7305.4026    18.067728    22.774514    19.330989    7954.3871    7361.9819    7873.9447    6680.2812   -369.36821   -500.74075   -557.19201   -3499.8405 
 2286000    250.42321   -4837.0905   -4336.2131   -4837.0905            0    6443.9881    17.945264    22.855573    19.474758    7987.5583    5982.8697    7245.8049    6103.2897    1076.2604   -411.22479   -1008.6547   -3585.5507 
 2287000    262.27571   -4825.1549   -4300.5711   -4825.1549            0    6868.2601    18.102247    22.746482     19.44224    8005.5844    7716.0148    7035.4706    5853.2948    2288.3109    -30.65863    1369.8854   -3498.6795 
 2288000    241.85777   -4797.9982   -4314.2528   -4797.9982            0    5785.2518     18.17686    22.836728    19.402702    8054.0618    5220.5256    5809.4835    6325.7463    533.21582     1112.062   -2048.8858   -3634.7158 
 2289000     257.6387   -4832.6988   -4317.3896   -4832.6988            0    7053.7541    18.036656    22.895325    19.391535    8007.8333    6552.4268    7731.6271    6877.2083   -1469.5547    1386.7328   -1107.9333   -3493.6096 
 2290000    259.69144   -4823.1597   -4303.7448   -4823.1597            0    6865.7993    17.970235    22.996131    19.383761    8010.2593    6657.9477    7621.0814    6318.3688    3350.2574    55.951233     931.0505   -3501.6724 
 2291000    255.81193   -4811.3752   -4299.7197   -4811.3752            0    6703.3014    17.941632    23.026322    19.431716    8027.8204     6846.216    7214.8624    6048.8257   -708.02994    177.64546   -550.58545   -3514.9138 
 2292000    270.65683   -4854.7283   -4313.3812   -4854.7283            0    6974.9608    18.062252    22.993289    19.262164    7999.7807    4004.8277    6544.2545      10375.8    1291.2685   -482.32701    2020.0792   -3499.6223 
 2293000    261.34226   -4796.3483   -4273.6315   -4796.3483            0    8136.5302    17.865496    22.957079    19.438472    7972.4872    9923.4837      8023.08    6463.0268     283.2892   -385.78303   -1660.6981   -3327.5926 
 2294000    254.57313   -4863.1438   -4353.9661   -4863.1438            0    5098.9368    18.193275    23.017101    19.220269    8048.6116    3666.3653    5113.7301    6516.7149   -1142.4189   -148.15741   -1874.4121   -3755.4491 
 2295000    247.25961   -4834.8574   -4340.3077   -4834.8574            0    7523.7033    17.873137    23.002468    19.364374    7961.2028    7258.9676    7584.5774    7727.5648    55.776854    232.28454    235.04459   -3466.7608 
 2296000    254.30571   -4850.5889    -4341.946   -4850.5889            0    6271.8806     18.02813    23.196788    19.156544    8011.1652    7283.0381    4712.3445    6820.2591     -534.116    867.47966   -945.14415   -3609.1732 
 2297000    251.93524   -4805.2043   -4301.3027   -4805.2043            0     7400.064    17.802701    23.049025    19.425747    7971.0616    9497.3551    7253.4151    5449.4219    412.96726   -87.053394    432.36185    -3441.047 
 2298000    259.84568   -4847.4711   -4327.7476   -4847.4711            0    7534.3638    18.056173    22.899489    19.267713    7966.7591    5727.6239    9187.5795    7687.8881   -280.90604    652.40216    -2010.774   -3452.3524 
 2299000    260.22978   -4805.0438   -4284.5521   -4805.0438            0    8128.3915     17.95757    23.037151    19.295285    7982.2904    5468.6535     9209.003    9707.5178    303.17269    1068.3991    1605.8575   -3338.2975 
 2300000    244.35348   -4823.5643   -4334.8272   -4823.5643            0    5519.1662    18.050636    23.191471    19.221284     8046.429    6181.2341    5479.7192    4896.5453    1331.2144    -81.46406   -1145.1035    -3687.159 
 2301000    268.21536   -4784.6599    -4248.196   -4784.6599            0    6147.3266    17.898891    23.209176     19.36832    8045.9584    5737.5039     6514.781     6189.695    573.62163    49.165458      1225.78   -3526.8561 
 2302000     242.2858    -4829.749   -4345.1475    -4829.749            0    5560.5641     17.87094    23.397397    19.224157    8038.2635    6516.7851    5123.7137    5041.1933    1.3941641    184.07847   -1785.5272   -3693.2835 
 2303000    269.29474   -4881.2254   -4342.6026   -4881.2254            0    6985.0146    17.832321    23.247345    19.159489    7942.6449    6419.9483    6385.7886    8149.3068    1190.6878    139.41682   -97.147135   -3533.4911 
 2304000    257.23733   -4788.1492   -4273.6427   -4788.1492            0    7413.5859    17.955697    23.222563    19.191497    8002.4192    5389.3552    7008.5704    9842.8321   -663.67853   -214.35229   -740.05112   -3408.4248 
 2305000    262.54165   -4818.5667    -4293.451   -4818.5667            0    6569.9954    17.972877    23.219158    19.159024    7995.3492    5032.1252    7180.7441    7497.1169    769.75159   -1119.2857    1690.3585   -3527.3634 
 2306000    272.93442   -4804.1389   -4258.2363   -4804.1389            0    7867.2795    17.708649    23.465738    19.189521    7974.1388    9393.6412     5963.836    8244.3615   -253.72738   -934.86483    160.58832   -3343.3139 
 2307000    243.64717   -4836.8672   -4349.5428   -4836.8672            0    6275.9278    17.990422    23.089559    19.301156    8017.5244     7460.063     5211.732    6155.9885    331.55204    588.22912   -1069.4268    -3615.715 
 2308000    266.59775   -4845.7393   -4312.5108   -4845.7393            0    5820.3527    18.005961    23.011866    19.340166    8013.6127    5708.8576    5865.5117    5886.6889    673.26621   -370.23175    1074.8463   -3632.2843 
 2309000    254.87246   -4832.7298   -4322.9534   -4832.7298            0    5658.2472    17.978234    23.049367    19.426566    8050.1149    4522.4005    6151.3986    6300.9425    1472.8786     259.1933    10.787243   -3658.6601 
 2310000    252.48225    -4827.688   -4322.6923    -4827.688            0      5216.94    17.978845    23.084036    19.362531    8035.9207    4578.6949    4913.4822    6158.6427    333.44562   -194.57172    1152.2408   -3711.2896 
 2311000    265.66343   -4819.1999   -4287.8402   -4819.1999            0    6693.9652    17.975871    23.189087    19.190243    7999.3383    6577.9971    6617.7407    6886.1579   -225.92515    1229.3116   -827.23571   -3506.9078 
 2312000    272.52917   -4813.2928   -4268.2008   -4813.2928            0    6387.6318    17.958449    23.083765    19.421863    8051.3061    6563.7228    7352.7406     5246.432   -109.94425    183.81265    1.2073645   -3518.1648 
 2313000    259.64169   -4806.3832   -4287.0678   -4806.3832            0    4266.7587    18.104707    23.194291    19.298581    8103.9732    1391.7959    3817.6323    7590.8477   -1292.5579    74.076184   -704.38528   -3782.7875 
 2314000    247.15283   -4815.0496   -4320.7134   -4815.0496            0    6765.5852    17.786095    23.109974     19.47807    8006.1918    7675.9178    6602.4656    6018.3722   -371.26654   -930.58336    2215.2272   -3530.7495 
 2315000    256.78628   -4851.4191   -4337.8148   -4851.4191            0    7113.8024    17.909491    23.039783     19.30678    7966.5718    8469.3297    6071.4802    6800.5973    276.13242   -658.45494   -154.08515   -3511.3028 
 2316000    272.27073    -4821.381   -4276.8059    -4821.381            0    4561.7727    18.035245    23.167483    19.318103    8071.7064    4534.6393    3954.7751    5195.9037   -288.30222   -299.00671    522.33043   -3739.8051 
 2317000    248.44128   -4827.5414   -4330.6282   -4827.5414            0    4829.6359    17.797876    23.276836    19.436659     8052.185    7363.7881    3163.6003    3961.5194     1287.622    -719.3912   -1818.3842   -3763.4702 
 2318000    254.64168   -4811.0497   -4301.7349   -4811.0497            0    7328.2944    17.996161    23.095418    19.223575    7989.8727    5553.2986    6849.1155    9582.4692   -68.749178    500.02529    368.17091    -3447.812 
 2319000    240.31248   -4834.0913   -4353.4366   -4834.0913            0    5373.4137    17.802334    23.274012    19.388958    8033.4604    7262.0469    4942.3712     3915.823   -637.25689    241.64425    710.53966   -3723.8886 
 2320000    256.18132   -4804.4493    -4292.055   -4804.4493            0    7177.1619    17.834407    23.273877    19.199033    7969.0538    7765.9997    7055.7791    6709.7069    885.24306   -359.66056    667.84992   -3457.9218 
 2321000    263.70134   -4832.4158   -4304.9805   -4832.4158            0    7376.0959     17.88526    23.101079    19.288458    7969.3891     9029.339    6728.6257    6370.3231    -632.5576     349.9297    1568.2549   -3447.6911 
 2322000    270.61477   -4801.3356   -4260.0726   -4801.3356            0     4444.035    18.082992    23.261164    19.211716     8081.052    5786.9213    3144.7741    4400.4098     556.5608    640.70074    1839.0747   -3736.3259 
 2323000    255.26798   -4859.3548   -4348.7873   -4859.3548            0    6315.7924     18.04961    23.004565    19.189597    7967.9704    5288.4137    7066.4487    6592.5147   -1654.0271    321.39429    1141.0741   -3614.8627 
 2324000     249.5483   -4844.5962   -4345.4688   -4844.5962            0    5892.7361    17.926217    23.045405    19.429993    8026.8594    6850.5597    6110.1415     4717.507   -999.51727    -38.09654    1100.3904   -3655.6444 
 2325000    253.72897   -4825.8801   -4318.3908   -4825.8801            0    7054.4022    17.954774    23.090486    19.293041    7998.5954    6501.3809    7055.2575    7606.5683     217.0349   -895.58374   -1529.6832   -3495.4856 
 2326000    250.92041   -4809.9545   -4308.0827   -4809.9545            0    4918.4818    17.999644    23.048673    19.454933    8071.2271    4319.1325    5124.4904    5311.8224    453.63323   -506.73885    143.02424   -3729.1254 
 2327000    254.34186   -4870.3897   -4361.6746   -4870.3897            0    5576.1184    18.107024    23.025411    19.206176    8007.4708    4821.7946    5674.9343    6231.6263   -1382.7163    141.31397   -1865.0657   -3710.4913 
 2328000    265.39922   -4800.3185   -4269.4873   -4800.3185            0    5600.0173    18.084087    22.982345    19.406445    8065.6044    5944.2094     5475.057    5380.7856   -1176.7097    677.92679   -1144.9495   -3610.7653 
 2329000    250.75123   -4827.5778   -4326.0443   -4827.5778            0    7086.0584     17.97497    22.969488    19.367803    7996.4983    7989.1083    7307.6215    5961.4454    415.56143   -113.34488    2215.6999   -3499.6631 
 2330000    261.24827   -4803.9158    -4281.387   -4803.9158            0    5394.4799    17.976952    23.024691    19.401979    8030.7464    7038.6095    5098.8715    4045.9586     1674.292    138.29776   -381.77662   -3649.5844 
 2331000    248.40047   -4792.8447    -4296.013   -4792.8447            0    7292.3693    18.084178    22.858008    19.358012     8001.988    7301.7401    6972.8811    7602.4866    36.712545   -652.48041    1597.8299   -3444.9878 
 2332000    247.55905   -4843.4197    -4348.271   -4843.4197            0    6018.2957    18.155144    22.808805    19.454396    8056.0098    5641.6845    6624.0202    5789.1824   -387.64892   -195.49025   -2177.6764   -3641.1896 
 2333000    258.58206   -4810.5571   -4293.3611   -4810.5571            0    7114.5588    18.198913    22.765371    19.340255    8012.7648    7204.3544    8032.1571     6107.165    410.56969    1683.9664     388.9571   -3461.9683 
 2334000    258.04877   -4789.4635   -4273.3341   -4789.4635            0    8265.7586    17.967137    22.823971    19.456602    7978.7909    8569.9545    7191.1835     9036.138    891.58329   -117.98299    688.06969   -3311.5099 
 2335000    256.37111   -4831.1289    -4318.355   -4831.1289            0    5897.2406    18.098087    22.825194    19.375468    8003.8572    6494.8874    5058.4219    6138.4124   -1765.5301   -757.37637     1413.028   -3629.9816 
 2336000    250.30211   -4830.5708   -4329.9356   -4830.5708            0    5803.9358     18.01187    23.005574    19.370331    8026.5502    5730.6165    5338.1298    6343.0611   -482.04185    18.559969   -1626.7359   -3650.5327 
 2337000    249.87755   -4831.1185   -4331.3325   -4831.1185            0    5743.5922    18.038844    22.993636    19.361535    8030.7501    6463.2376    5794.4998    4973.0392    53.428996    87.895797    251.27723   -3658.6415 
 2338000    250.85825   -4822.7696   -4321.0221   -4822.7696            0    5566.7051    18.156264    22.957311    19.416671    8093.2371    3607.4209     5158.418    7934.2764    461.40724    864.38222   -873.49744   -3663.9752 
 2339000    256.86287   -4876.0524   -4362.2949   -4876.0524            0    5600.4954    18.022651    23.141299    19.211101     8012.327    4984.1076    5812.3516     6005.027    -795.5893    507.57926    -25.41876   -3707.8682 
 2340000     255.8796   -4842.3605   -4330.5697   -4842.3605            0    6161.0418    17.981192    22.998775    19.353819    8003.6823    6235.1767    5090.5131    7157.4354    98.664598   -128.42402     174.6069    -3611.419 
 2341000    251.56877    -4831.969   -4328.8004    -4831.969            0     7162.503    17.965976    22.981221    19.355227    7991.3876    7363.0669    7699.2123    6425.2297     884.9065   -105.35629    577.47132   -3494.0379 
 2342000    265.64185   -4846.2947   -4314.9782   -4846.2947            0    6869.8784    18.044392    22.735979     19.49189    7996.6828    8201.6272    6861.8374    5546.1706    137.12731   -1448.5944    231.16246   -3513.7895 
 2343000    269.56094   -4831.3068   -4292.1517   -4831.3068            0    5987.8654    18.171662    22.621082    19.460688    7999.5624    5152.7492    6925.0751    5885.7718    172.68359    895.99305   -1148.4474   -3593.5749 
 2344000    251.71637   -4821.7047   -4318.2409   -4821.7047            0    6770.8238       18.172    22.792489    19.354766    8016.4563     4499.411    7048.7481    8764.3125   -683.24547    332.72051   -304.72777   -3526.6517 
 2345000    250.39548   -4852.1118   -4351.2899   -4852.1118            0    7170.1462    18.040911    22.760962    19.413384    7971.6887    6017.0152    7869.4139    7624.0095    1103.7403   -1064.3384    1452.1687   -3517.6966 
 2346000    264.05587   -4826.9074    -4298.763   -4826.9074            0    4671.5292    18.143391    22.634322    19.600209    8049.0879    4987.5886    4151.0125    4875.9866    565.25615   -1800.6113   -442.35066    -3750.383 
 2347000    256.63717   -4829.2883   -4315.9823   -4829.2883            0    5710.6532    18.172684    22.868517    19.342378    8038.3507    5494.1826    6299.7099     5338.067   -1091.0766   -514.39219   -2124.0307   -3646.5161 
 2348000    271.76698   -4867.0744   -4323.5069   -4867.0744            0    4456.1001    18.099161    23.014778    19.404751    8083.0138     4810.335    3934.2593     4623.706   -324.30787    249.68028    -1767.862   -3798.2108 
 2349000       256.55   -4831.3606   -4318.2289   -4831.3606            0    6177.2402    17.901071    23.150869    19.242601    7974.6218    5218.4165    6170.6481    7142.6559    1177.8765    668.02788    1036.0707   -3599.8055 
 2350000    270.73661   -4851.2699   -4309.7632   -4851.2699            0    6659.2596    17.815219    23.212859    19.312876    7986.6881     5753.726    5894.1073    8329.9457    370.78606   -1170.4789   -996.21754   -3534.1083 
 2351000    233.51401   -4817.5182   -4350.4613   -4817.5182            0    6231.1346    17.793459     23.27584    19.313867    7998.9869    6851.2005    5102.5904    6739.6127     4.947726   -252.70787    938.96781   -3623.5557 
 2352000    249.48289   -4811.1342   -4312.1376   -4811.1342            0    8199.4666    17.800401    23.127702    19.356978    7968.9267     9603.065    7182.0304    7813.3043    1745.9739    113.20454   -537.39845   -3359.2069 
 2353000    271.03805   -4834.1807   -4292.0711   -4834.1807            0    6134.0403    18.094202     23.02254    19.153571    7978.8892    5894.5784    5527.4224    6980.1201    371.10353    127.66088   -384.79219   -3578.2902 
 2354000    260.62577    -4814.904   -4293.6203    -4814.904            0    6990.8348    17.912531    22.954335    19.416898    7983.6507    6955.4197     6625.996    7391.0887    876.56274   -123.36551    692.39597   -3479.6539 
 2355000     264.1005   -4798.8677   -4270.6341   -4798.8677            0    3674.5226    18.322787    22.967846    19.306667    8124.9201    1043.3757    4618.7247    5361.4675   -84.332662    298.44207   -91.715235   -3835.2266 
 2356000    237.01277   -4820.8918    -4346.837   -4820.8918            0     6367.147    18.001228    22.776798    19.588209    8031.3682    9652.7846     5642.052    3806.6044    363.24035   -1230.3761   -1394.2751   -3601.0577 
 2357000    262.11557   -4832.0098   -4307.7463   -4832.0098            0    5481.5742    18.162275    22.817694    19.353569    8020.5301     4210.454    6944.2788    5289.9898    560.37349   -804.53367   -177.87736     -3666.56 
 2358000    255.64537   -4797.6693    -4286.347   -4797.6693            0    6744.4668    18.113592    22.774025    19.473643    8033.2559    7927.8199    7221.0869    5084.4934   -1330.7566    407.46942   -1208.9171   -3496.1869 
 2359000    251.73579   -4838.2302   -4334.7276   -4838.2302            0    5682.4117    18.142119    22.847814    19.364761    8026.8441    5016.4869    6077.1552    5953.5929    920.28006   -839.18161   -636.58077   -3669.5258 
 2360000    262.90954   -4810.8045   -4284.9529   -4810.8045            0    7435.1365    18.118541    22.822115    19.420848    8030.5872    8787.9769    6392.7103    7124.7221    177.53262   -1046.8415    88.257935   -3414.1655 
 2361000    268.28733   -4802.1438    -4265.536   -4802.1438            0    6586.0363    18.253025    22.882493     19.17964    8010.8505    5696.9843    7778.4272    6282.6972    919.17126    380.31343    251.41521   -3496.0891 
 2362000    260.97975   -4820.5449   -4298.5531   -4820.5449            0    6650.0852    17.914407    23.048165    19.400764    8010.4635    7623.3496    7086.0993    5240.8066   -435.05294    490.40292   -496.90679    -3521.661 
 2363000    254.60907   -4841.2012   -4331.9517   -4841.2012            0    7790.8878    18.053893    22.954325    19.186762    7951.2805    6942.0729    8486.3592    7944.2313    1588.7409     79.80398    580.56374   -3428.5104 
 2364000    259.56313   -4817.1531   -4297.9948   -4817.1531            0    5453.0294    18.049317    22.980533    19.419988    8055.0794    6740.6617    5420.7698    4197.6567    318.51783    151.42749    119.05045   -3657.3998 
 2365000    258.05738    -4830.723   -4314.5764    -4830.723            0    6768.0744     18.15809    22.748474    19.374498    8003.0013    6522.3002    6639.4852    7142.4378    479.69109    22.000163     -2172.82   -3524.6367 
 2366000    251.62709   -4851.2895   -4348.0042   -4851.2895            0    4637.6838    18.142523    22.830723    19.451991    8057.1493    3809.6383    4611.5951    5491.8181   -101.02302   -1417.5432    1113.0376    -3803.052 
 2367000    251.96117    -4848.797   -4344.8436    -4848.797            0    8079.6902    18.113857    22.706153    19.356815    7961.3805    7314.0933    9763.8399    7161.1374   -174.10408    389.63053   -1059.1498   -3406.7223 
 2368000    246.25712   -4831.2323   -4338.6877   -4831.2323            0    7608.5165     18.11836    22.723731    19.347822    7965.8221    6548.2532     8520.622    7756.6742   -1932.0095   -575.29901   -397.67779   -3454.7809 
 2369000    259.66014   -4864.7544    -4345.402   -4864.7544            0    5514.8425    18.178426    22.689616    19.497977     8042.165    5037.2077    5964.9193    5542.4006    1071.7344   -1292.8003    2.3910362   -3698.5842 
 2370000    256.80067   -4831.6007   -4317.9676   -4831.6007            0     7421.693    18.193902    22.704765    19.319581    7980.6919    8452.5238    6460.4046    7352.1508    494.20785   -1232.8367    52.962193   -3454.1552 
 2371000    253.11254   -4848.5337   -4342.2774   -4848.5337            0    5797.0661    18.168703    22.698267      19.5243    8051.7836    4626.3944     6566.569    6198.2348   -121.29049   -93.257146    150.41025   -3661.5453 
 2372000    259.97066   -4804.8558   -4284.8824   -4804.8558            0    6284.0676    18.153359    22.754683    19.433312    8027.3944     7765.813    6728.8477     4357.542    690.20037    666.70472    666.31661   -3549.1983 
 2373000    253.06583   -4820.8853   -4314.7224   -4820.8853            0     7451.734    18.010894    22.848689    19.343376    7960.2889    7270.5788    8294.5753    6790.0478    208.52816   -648.43206   -362.45777   -3449.6309 
 2374000    255.78034   -4806.1081   -4294.5159   -4806.1081            0    8680.7984    17.945217    22.965074    19.336791    7968.9474    9361.1677     8397.979    8283.2485    174.53175    309.43216    201.16262   -3285.6428 
 2375000    265.13972   -4816.1142    -4285.802   -4816.1142            0    7562.8111    18.157238    22.903609    19.223531    7994.4185    7209.3327    7761.2339    7717.8666   -1162.3492    1198.0453   -1091.3517   -3404.0509 
 2376000     250.0742    -4824.635   -4324.4557    -4824.635            0    7122.0472    18.048234    22.709137    19.452241     7972.692    5728.5529    7881.3401    7756.2487    902.09343    1263.6667     1453.281   -3496.3501 
 2377000     245.2948   -4821.2017   -4330.5818   -4821.2017            0    7828.9279    18.166423    22.843918    19.232078    7981.1636    6057.6721    8080.8403    9348.2714    408.92452   -1.9573858   -1611.4288   -3419.3174 
 2378000    243.36219   -4813.2986   -4326.5442   -4813.2986            0    7017.2849    17.940278    22.884192    19.492422    8002.5901    8717.3743     7501.641    4832.8393   -205.89094   -690.16715    463.88318   -3507.5599 
 2379000    269.98445   -4812.3557   -4272.3535   -4812.3557            0    5670.9685    18.100585    23.152811    19.267349    8074.5496    6607.0159    4592.6879    5813.2017   -1073.9175   -1088.7783   -686.84244   -3604.5458 
 2380000    244.79373   -4837.4842   -4347.8665   -4837.4842            0    6974.4049    17.790475    23.114037    19.334428    7950.5044    8846.6738    4953.5191    7123.0217   -1149.2491    430.73046   -388.63568   -3539.1846 
 2381000    255.74422   -4865.0001     -4353.48   -4865.0001            0    5863.2535    18.160033    22.985169     19.13449    7986.9547    5356.3859    5205.8209    7027.5539   -606.54138   -1554.4087   -801.91789   -3670.5192 
 2382000    265.10413   -4807.5581   -4277.3171   -4807.5581            0    4899.7068    17.947012    22.973647    19.495597    8038.1967    4443.7885    4819.1023    5436.2295    438.80699   -917.83346   -684.94124   -3702.9301 
 2383000    262.85612   -4815.3467    -4289.602   -4815.3467            0    6324.6766    18.222527     23.06718    19.089073    8023.9451     5451.063      5523.87    7999.0969    645.09474   -1305.6737    672.29879   -3549.4819 
 2384000    245.18286   -4828.2434   -4337.8474   -4828.2434            0    6401.4011    17.774812    23.033332      19.5566     8006.729    6878.2493    5853.6731    6472.2809    1063.1099   -332.07755    578.75108   -3590.3562 
 2385000    252.22238   -4827.1924   -4322.7165   -4827.1924            0    7995.6789    18.074743    22.919324    19.125518    7922.9545    7022.8752    7850.3054    9113.8561    276.07235   -349.93989    409.77685   -3398.8305 
 2386000    269.64843   -4831.0961   -4291.7659   -4831.0961            0     5671.776     17.96441    23.113878    19.375461    8045.2181    6305.7383    4804.9772    5904.6126   -1240.7108    1218.2126    279.10982   -3626.2894 
 2387000    247.93809   -4821.8988    -4325.992   -4821.8988            0    5291.8717    17.916283    23.127235    19.380791      8030.51    4254.1303    5131.7943    6489.6906    638.11491   -76.004336    453.64744   -3706.2251 
 2388000    257.33281   -4831.4262   -4316.7288   -4831.4262            0    6090.0585    18.060702     23.13041    19.212629    8026.1034    6160.0129      4956.89    7153.2725   -409.03637    -283.0061   -668.39082   -3603.8723 
 2389000     236.8715   -4820.4967   -4346.7244   -4820.4967            0    7444.3919    17.910503    23.083547    19.305938     7981.807    9236.8302    5791.6351    7304.7105    12.216072    432.11911   -4.7202172   -3480.1491 
 2390000    253.78726   -4814.9791   -4307.3732   -4814.9791            0    5390.2683    18.099201    23.215256     19.10907     8029.203    3661.7548    5354.3857    7154.6644    816.79104    865.70969   -91.865659   -3676.1852 
 2391000    259.10768   -4834.8457   -4316.5983   -4834.8457            0     7693.852    17.748185    23.072947    19.431114    7957.0983    8855.3271    7605.3199    6620.9091   -605.76484   -957.73571   -571.60189   -3423.7567 
 2392000    264.57867   -4835.6225   -4306.4325   -4835.6225            0    5296.2167    18.087543    23.111363     19.20874    8029.7866     5211.838    5468.4847    5208.3273   -693.02596   -233.96379    1766.8045   -3686.2127 
 2393000    248.70597   -4823.4641   -4326.0215   -4823.4641            0    5245.4486    17.859213    23.178123    19.395024     8028.435    5429.5132    5162.2053    5144.6271   -1534.5411   -107.98814   -2389.3297   -3711.8503 
 2394000    255.47328    -4826.649   -4315.6709    -4826.649            0     6336.583    18.040315    23.053096    19.257038    8008.7153    5100.0912    6270.5727    7639.0851     2490.305    283.62649    1455.9389    -3575.565 
 2395000    247.66282   -4822.9044   -4327.5482   -4822.9044            0     5966.771    18.074563    22.978963    19.393318    8054.7185    4913.4723    6388.9874    6597.8534     178.7315    306.15785   -1143.4845   -3626.6327 
 2396000    248.28496   -4819.9088   -4323.3082   -4819.9088            0    7216.1513    18.017903    22.894084    19.380276    7994.4293    7264.2328     6999.304    7384.9171    2211.8161   -339.42057   -454.41225   -3481.9731 
 2397000    257.10138   -4861.0026   -4346.7681   -4861.0026            0    6724.6009    18.087127     22.91584    19.300849    7999.8489    5476.0504    7345.0116    7352.7406   -777.34161   -534.95952   -28.446768   -3562.2116 
 2398000    253.43581   -4828.3564   -4321.4535   -4828.3564            0    9118.8796    18.138187    22.592827    19.441359    7966.9312    9988.0911    9474.9175    7893.6302   -331.13448    1932.0055   -1610.7625   -3261.9352 
 2399000    264.76715   -4819.7263   -4290.1593   -4819.7263            0    5494.6751    18.242797    22.751623    19.385001    8045.8071    4905.5786    7099.9753    4478.4716    -288.9515    1172.0435   -12.157311    -3645.415 
 2400000    256.11272   -4851.8283   -4339.5713   -4851.8283            0    5848.4051    18.257394    22.765682    19.315247    8028.2285    4859.2181    5715.8257    6970.1713     637.5431     327.7021    1119.1115   -3654.8196 
 2401000    258.80596   -4780.0278   -4262.3839   -4780.0278            0    6584.0191    18.071841    22.759348    19.501224    8020.9182    5439.4056    7790.4905    6522.1613   -1135.2846   -965.92957   -1271.9494    -3492.206 
 2402000    261.77149   -4832.9945   -4309.4192   -4832.9945            0    5843.8701    18.067177    22.875429    19.420829    8026.5202    6610.1783     4916.826     6004.606   -278.97978  -0.48401447    1608.5998   -3625.3441 
 2403000    264.46133   -4823.2068   -4294.2514   -4823.2068            0    6857.3787    18.030595    22.849572    19.422819    8002.0341    7333.9607    7327.8541    5910.3212    -2023.443    530.00763    908.96954   -3493.9853 
 2404000    259.08565   -4832.3365   -4314.1331   -4832.3365            0    7652.8211    18.219582    22.878784    19.176332    7993.4981    6470.5129    7765.6756    8722.2749   -826.49199    954.06596    1662.1398   -3421.9904 
 2405000    254.67314   -4834.2612   -4324.8834   -4834.2612            0    6505.9094    17.960173    23.008068    19.397192    8015.4798    7947.1409    6493.5505    5077.0369   -776.55274    221.78262   -393.91445   -3564.3586 
 2406000     240.2999   -4824.7775    -4344.148   -4824.7775            0    6555.2823    18.051007    23.203752    19.189041    8037.3509    6422.9077    5869.9833    7372.9559     1230.015    308.34672    677.93001   -3575.7607 
 2407000    261.35606   -4833.7313   -4310.9869   -4833.7313            0    8220.5858    17.983079    23.055759    19.104207    7920.8628    7036.4772    8449.3025    9175.9776   -794.51992    1106.9464    1803.5958    -3361.364 
 2408000    242.17056   -4834.2363   -4349.8652   -4834.2363            0    5860.5561    18.064368    23.002001    19.343843    8037.6882    5542.4924    6192.3949    5846.7809    856.92076   -260.32993    35.166875   -3662.8824 
 2409000    246.89598    -4843.554   -4349.7315    -4843.554            0    4158.2522    18.154509    22.904246    19.413693    8072.5111    5221.1075    3476.0189    3777.6303    53.121242    156.47213    111.03582   -3860.1834 
 2410000    268.88475   -4844.2016   -4306.3988   -4844.2016            0    6310.4423    18.059907    22.787633    19.419623     7992.001    6820.3693    5992.3029    6118.6547   -906.92648   -164.30603    1935.2499   -3570.8844 
 2411000    248.80421   -4842.9386   -4345.2994   -4842.9386            0    5075.1773    18.172869    22.708534    19.492626    8044.2013    3620.0521     5929.406    5676.0737   -816.93034   -573.73289    701.34715   -3749.8978 
 2412000    256.05169   -4826.6558   -4314.5208   -4826.6558            0    4392.5302    18.195086    22.588621    19.636883    8070.7964    4392.0903     5452.481    3333.0193     7.091171   -283.63089      1743.07   -3797.5012 
 2413000    254.76325   -4823.8326   -4314.2746   -4823.8326            0    7354.8872     18.02046    22.766397    19.347928    7937.6992    7497.6803    6690.1291    7876.8522   -209.37898     489.0677    1309.5865   -3462.8493 
 2414000    250.19088   -4828.8888   -4328.4761   -4828.8888            0    7280.1365    17.928683    22.968689    19.433618    8002.7318    9884.0241    6446.9419    5509.4434    662.54346   -1111.0959    952.18988   -3478.7995 
 2415000    252.59492   -4825.4162   -4320.1951   -4825.4162            0    8158.0258    18.037379    22.955968    19.232022    7963.3165    7307.6613    8074.8595    9091.5566    521.78553   -14.640686    755.88918   -3372.7481 
 2416000    266.24257   -4800.4829   -4267.9648   -4800.4829            0    6407.0776    17.942725    23.067134    19.341093    8005.0313    6533.6501    6030.1932    6657.3895   -980.86139   -204.01241   -1999.6487   -3519.9695 
 2417000    253.12114    -4836.626   -4330.3525    -4836.626            0    6656.9513    18.093719    22.913877    19.323505    8011.4718     6367.665    6804.0442    6799.1446    2242.9835   -684.55363     1200.191   -3552.5603 
 2418000    255.46764   -4807.2914   -4296.3246   -4807.2914            0    5679.9253    18.076056    23.035348    19.323442    8046.0542    4468.0528    5928.9697    6642.7535   -714.80257    665.94647   -466.83988   -3629.8225 
 2419000     277.0709   -4835.8271    -4281.651   -4835.8271            0    6333.4702     18.09637    22.881117    19.304221    7993.2054    6701.6445     6691.956    5606.8101      1304.83    1676.8871   -1925.1578   -3543.3413 
 2420000    259.85435   -4830.2726   -4310.5318   -4830.2726            0    4877.8235    18.115347    22.876423    19.521467    8089.9761    6160.1006     4932.388    3540.9821   -505.00292    315.45494    323.33237   -3735.0266 
 2421000    258.90144   -4816.6175   -4298.7826   -4816.6175            0    5857.2786    18.125299    22.701679    19.505842    8026.1609    7944.3756    5582.5583     4044.902    961.63982    -1916.429   -848.68986   -3613.1687 
 2422000    248.77768   -4832.2736   -4334.6875   -4832.2736            0    6196.5524    18.162882    22.582046    19.517455    8005.1823    4902.3979    7472.3674    6214.8919   -343.27889   -539.60461   -1658.9943   -3611.2563 
 2423000    244.22417   -4834.1017   -4345.6232   -4834.1017            0    5793.4226     18.13219     22.83031    19.414875      8037.05    6306.1247    6042.0161     5032.127    736.90929    135.03975    -406.9796   -3666.5638 
 2424000    252.88565   -4835.3285    -4329.526   -4835.3285            0    6479.3677    18.021769    22.864655     19.43804    8009.6688    6158.1501    7098.8529    6181.1003    253.28325    635.05612   -1056.6798   -3572.6529 
 2425000    257.95136   -4833.5651   -4317.6305   -4833.5651            0    7956.2811    17.989494    22.902745    19.253112    7932.4515    6274.4429    8506.6186    9087.7818    714.55045   -312.67406   -1647.4194   -3397.1949 
 2426000    263.76367   -4850.4839    -4322.924   -4850.4839            0    6714.4668     18.05537    23.039644    19.234834    8001.4852     8663.205    4974.8079    6505.3876    34.800265   -61.902953   -2369.8697   -3539.3897 
 2427000     269.4242   -4831.9442   -4293.0625   -4831.9442            0    7333.3297    17.933291    23.256483    19.084999    7959.6903    8976.6491    5009.0394    8014.3006    1528.1339   -43.335223    684.53318   -3441.7808 
 2428000    255.42499   -4815.9365   -4305.0549   -4815.9365            0    6840.0826    18.012733    22.991877    19.262927    7977.6745    7456.1466    6769.5807    6294.5203   -527.37412   -234.45968   -667.29173   -3509.2373 
 2429000    254.26165   -4801.5961   -4293.0414   -4801.5961            0    6733.0316     17.98793    22.978662    19.388481    8014.0067     7860.959    7047.2069    5290.9291   -401.88742    976.91921    150.48968   -3506.1111 
 2430000    253.94898   -4820.2478   -4312.3185   -4820.2478            0    5206.8517    18.095368    22.989082    19.352626     8050.613    5218.3704    4508.9139    5893.2707    218.34511   -992.28898   -37.900263   -3700.9824 
 2431000    253.86936   -4837.6407   -4329.8706   -4837.6407            0    8080.0841     18.05822    22.859918    19.266271    7953.2983    8527.9814    8827.3954    6884.8756    1642.1132    469.88637    3868.3938    -3392.656 
 2432000    247.44048   -4804.1195    -4309.208   -4804.1195            0    6560.2382    18.133705    22.825536    19.439107    8046.0704    5148.0768    7358.4718    7174.1658   -276.47701    1063.7521    1667.8026   -3539.4055 
 2433000    246.16055   -4830.8281   -4338.4765   -4830.8281            0    7830.1398    18.054105    23.184463    19.091211    7991.0985    6220.0908    8909.3951    8360.9337    8.5987318    1093.1079   -689.14557   -3425.9366 
 2434000    249.73587   -4845.4593   -4345.9567   -4845.4593            0    6243.0444    17.927773    23.081467    19.287454    7981.1351     5702.704    7001.2742     6025.155    1474.9554    1159.6772    558.88474   -3619.2871 
 2435000    276.29334   -4831.4909   -4278.8701   -4831.4909            0    7501.4921    17.883117    23.090582    19.302636    7970.6678    9186.6682    6541.6488    6776.1593    99.318012   -270.10153    579.95611   -3406.8665 
 2436000    262.32535   -4817.2023   -4292.5192   -4817.2023            0    5094.1665    17.922582    22.990032    19.432063    8006.8017    6078.6514    4929.0738    4274.7742     771.4369   -1045.6791    952.79102   -3697.6684 
 2437000    249.49888   -4828.1848   -4329.1562   -4828.1848            0     5530.943    18.084979    22.837518    19.431735    8025.6181    5654.7134    6045.9226     4892.193    148.41327    182.37658   -2444.9057   -3681.7848 
 2438000     259.9613   -4815.7368   -4295.7821   -4815.7368            0    5451.7417    18.037406    22.890209    19.378802    8001.1193    5568.2824    5848.6985    4938.2442    1486.5802    1159.5465    892.74324   -3659.6286 
 2439000    245.83875   -4843.7405   -4352.0326   -4843.7405            0    6245.6642    18.173101    22.753503    19.372541    8010.5789    5188.4294    5705.3253    7843.2379   -813.37874     1054.112   -1055.4233   -3622.3762 
 2440000    265.15574   -4796.7972    -4266.453   -4796.7972            0    7467.7338    17.993428    22.812097    19.551818    8025.3921    7752.3547    7590.7083    7060.1384    442.94256    302.91351   -829.01636   -3392.4136 
 2441000    251.97674   -4807.1754   -4303.1908   -4807.1754            0    6845.9589    17.998002    23.001482    19.345403    8008.6236    8947.2023    7029.4961    4561.1784   -1270.3889     -739.684   -1009.3174   -3503.5995 
 2442000    268.91933   -4840.5843   -4302.7124   -4840.5843            0    6075.4027    17.848522    23.070348    19.420347    7996.7477    5899.1308    7042.7315    5284.3457     341.6195    453.75342    449.52534   -3594.1724 
 2443000    250.80898   -4815.8346   -4314.1856   -4815.8346            0    7832.2481     17.96928    23.112948    19.130263    7945.2388    7586.7698    7554.4913    8355.4832   -684.56264   -494.41886   -151.16049   -3406.6383 
 2444000    257.10013   -4820.1243   -4305.8923   -4820.1243            0    8127.7368     17.82379    23.261315     19.16906    7947.5839    9290.3392    6865.2954    8227.5758    579.01689    363.80323   -761.96062   -3363.8278 
 2445000    248.37888    -4811.085   -4314.2966    -4811.085            0    5704.1067    17.920838    23.182456    19.361412    8043.6802    6096.0169    5773.0372    5243.2659    26.912796   -287.49062   -544.39015   -3645.1545 
 2446000    253.66462   -4835.6124   -4328.2518   -4835.6124            0    5420.7002      17.8876    23.196613    19.338924    8024.3334    5559.0485    5365.5615    5337.4906   -335.21904   -227.03205    492.89087   -3693.8853 
 2447000    264.39575    -4841.729   -4312.9049    -4841.729            0    6800.0158    17.973499    23.159566     19.16704    7978.4421    6706.7104    5975.7109    7717.6261    933.34799   -48.858138   -796.30974   -3521.6727 
 2448000    245.67114   -4808.7724   -4317.3998   -4808.7724            0    5367.2596    18.116242    23.109737    19.317534    8087.5097     6502.711    5404.2541    4194.8136    509.06978    1110.0803    400.97901   -3684.3421 
 2449000    252.45996   -4794.8364   -4289.8853   -4794.8364            0    6464.5841    17.968374    23.059199    19.337698    8012.3102    5620.1791    6288.9798    7484.5934    -249.1026    567.69136   -1092.5084     -3534.49 
 2450000     255.9459   -4835.7391   -4323.8157   -4835.7391            0    5855.8265    18.002135    22.956703    19.378649    8008.6079    8602.4113    4581.9497    4383.1185   -215.96709   -1136.7118    1693.5698   -3639.8707 
 2451000    256.50551    -4830.386   -4317.3433    -4830.386            0    6546.0379    18.041002    22.755608    19.517707    8012.6817    3533.8179    8499.9554    7604.3405    -1595.085    1198.3112   -1915.8902   -3552.3946 
 2452000    253.42344   -4817.9727   -4311.0945   -4817.9727            0    7736.9764    18.086866    22.840719    19.316499    7979.9745    7505.4757    8546.0482    7159.4053   -502.22075   -153.39005   -3.4461799   -3410.6672 
 2453000    255.14978   -4861.2772   -4350.9461   -4861.2772            0    5460.3987    17.908558    23.087148    19.362245    8005.4657    5183.2684    5214.9754    5982.9523    295.01665    332.23807    -1593.731   -3713.4363 
 2454000     247.1308   -4843.5878   -4349.2956   -4843.5878            0    6503.8769    17.916187    23.181853    19.185356    7968.2617    5741.3436    6708.7347    7061.5525    1369.2814     320.1913    918.54412   -3593.4871 
 2455000    257.17768   -4858.4748   -4344.0877   -4858.4748            0    7097.3652    17.957441    23.103774    19.209762    7969.8357    7449.6563    6502.4179    7340.0214    565.09061   -117.58879    498.26125   -3519.1476 
 2456000    244.13711   -4826.0708   -4337.7664   -4826.0708            0      5459.52    17.911035    23.138804    19.379748    8031.7411    4747.7776    5182.7634    6448.0189      1477.49   -672.56313    436.57437   -3698.2672 
 2457000    255.45858   -4830.1046   -4319.1559   -4830.1046            0    5939.4029    18.082717    23.014679    19.203894    7992.0449    5158.5754    5963.0689    6696.5645    858.11862    219.98745    623.20816   -3626.8842 
 2458000    256.72174   -4817.2401   -4303.7649   -4817.2401            0     5149.914    17.968583    22.985138    19.537978    8069.3872    4477.2393    6173.1361    4799.3666   -484.46643    1007.1105   -1651.0803   -3697.7038 
 2459000     264.5518   -4841.6507   -4312.5144   -4841.6507            0    8526.1397    18.106292    22.729922    19.255617    7924.7378    8603.2584    8829.8998    8145.2609    630.20988   -293.41923   -573.57319   -3327.1129 
 2460000    269.57627   -4832.0953   -4292.9095   -4832.0953            0    6760.1646    17.964306    22.866967    19.479356    8001.9088    7350.5324    5992.7355    6937.2258    498.12464    -786.2081   -4.1856043   -3504.0008 
 2461000    261.64581   -4834.7713   -4311.4474   -4834.7713            0    6182.7651    18.175211    22.903903    19.253748    8015.0133     4787.417    7010.7314    6750.1469     1690.372    -959.2285    1278.7858   -3588.7394 
 2462000    254.98399   -4817.5143   -4307.5148   -4817.5143            0    7096.0043    17.782235     23.09762    19.437829    7983.6473    7847.3796    7852.8505    5587.7829    1530.3797   -102.44372   -928.82857   -3481.3035 
 2463000    249.54627   -4815.9566   -4316.8333   -4815.9566            0    6921.0295    17.913119      23.1519    19.279143    7995.4991    5662.4335    6390.3857    8710.2693   -545.05767     -1003.23   -396.85042   -3509.7986 
 2464000    258.70028   -4835.9477   -4318.5152   -4835.9477            0    7575.4023    17.810187     23.27082    19.239933     7974.138    8842.0643    5985.8243    7898.3182    318.52027    -141.4059   -478.05908   -3437.5367 
 2465000     243.4305   -4846.3945   -4359.5034   -4846.3945            0    6774.4396    17.950282     23.24553    19.123249    7979.4399    5667.4999    6097.5462    8558.2728    216.15957    800.48265   -2876.2498   -3571.1487 
 2466000    245.21542   -4805.6012   -4315.1401   -4805.6012            0    6811.9065    17.940091     23.14359    19.247528     7991.537    8541.6809    5336.9047    6557.1341    118.67828   -840.68991   -1611.0201   -3521.2235 
 2467000    243.88099    -4839.754   -4351.9619    -4839.754            0    6231.0333    17.872437    23.115832    19.333841    7987.5105    6964.8255    5192.4587    6535.8159    276.97742    374.82332   -1008.1414    -3626.111 
 2468000    262.00091   -4828.3118   -4304.2776   -4828.3118            0    6174.4732    18.034749    23.083497    19.288357    8029.8409    6340.5545    5422.7383    6760.1269    47.915665    310.90278   -2082.8016   -3581.2037 
 2469000    251.65451   -4819.9809   -4316.6408   -4819.9809            0    6727.3154    17.972727    22.921548    19.428871    8003.9704    6926.5389    7184.2945    6071.1127   -480.03961      488.308   -1045.2644   -3531.3633 
 2470000    247.01735   -4851.7185   -4357.6533   -4851.7185            0    6790.9722    18.148249    22.723354    19.365365    7986.0654    5434.7464    6932.4106    8005.7595   -840.17753   -189.81893   -1727.8011   -3566.7184 
 2471000    248.95938    -4824.461   -4326.5115    -4824.461            0    7337.7814    18.151298    22.434562      19.6166    7988.2018    8701.1634    8890.1528     4422.028    380.70659    42.264842   -1900.2274    -3471.662 
 2472000    247.04348   -4849.0698   -4354.9523   -4849.0698            0    6726.0346    18.274458    22.705768    19.360933    8033.5406     5481.404    7255.0292    7441.6707    180.91656    572.97415    400.19496   -3566.9237 
 2473000     243.7607   -4845.4591   -4357.9076   -4845.4591            0    5266.0409    18.195672    22.565344    19.502181    8007.4315    5149.5724    6315.4347    4333.1155    571.04231   -652.12683   -309.41615   -3742.9384 
 2474000    258.04387   -4829.2528   -4313.1332   -4829.2528            0    4874.3359    18.110868    22.758817    19.578756    8070.0095    5172.5113    4806.9018    4643.5947    338.76351   -864.37256    520.23248   -3739.4589 
 2475000     253.2146   -4846.3215    -4339.861   -4846.3215            0    7652.8126    18.018231    22.868421    19.371618     7982.046    7564.3883    7723.0498    7670.9997   -426.42361   -644.10097    965.93994   -3448.9974 
 2476000    248.89529   -4815.9541   -4318.1328   -4815.9541            0    8615.3121    18.062593     22.90698    19.221962    7953.2681    10883.019      7836.42    7126.4975   -273.42676    -615.6809    1214.3169   -3318.8405 
 2477000    274.98542   -4796.8282   -4246.8234   -4796.8282            0    5415.5467    18.055767    23.172329    19.221963    8042.3573    5010.2873    4707.8339    6528.5189    1165.4545   -895.65565   -2915.3811   -3611.6364 
 2478000    270.01737   -4833.0015   -4292.9334   -4833.0015            0    6159.9884    17.824431    23.211441    19.320334     7993.416    6078.4688    6744.2199    5657.2765   -788.65516    1419.5824    919.85175    -3574.828 
 2479000    256.48358   -4813.5583   -4300.5595   -4813.5583            0    6778.7553    17.941051    23.085573    19.286744    7988.1733    6170.5606    6879.4448    7286.2605   -515.60167    -204.1779   -4.9681686   -3510.8392 
 2480000    265.84858   -4809.5619   -4277.8319   -4809.5619            0    4356.9139    17.986134    23.172088    19.349253    8064.3097    5763.7629     3310.548    3996.4307    382.98949   -218.98544    1159.6887   -3765.4166 
 2481000    257.44456    -4808.766   -4293.8451    -4808.766            0     5762.205    18.067835    22.950448      19.4077     8047.692    5796.5392    6279.0349    5211.0408   -564.92934   -757.50635   -619.73965   -3617.5505 
 2482000    247.90471   -4813.4539   -4317.6139   -4813.4539            0    5864.2787    18.106178    22.949921       19.367    8047.6734    4443.4699    5802.2146    7347.1516    -319.7088   -584.41846    1312.4362   -3629.3407 
 2483000    254.36254   -4834.7792   -4326.0227   -4834.7792            0    6064.9993    17.908691    23.056765    19.428492    8022.3449    6883.5069    6087.6657    5223.8253    173.75826    144.76108   -452.37753   -3616.4319 
 2484000     269.1162   -4838.6924   -4300.4268   -4838.6924            0    5306.9378    18.068648    23.090195    19.366425    8079.8391    6041.9037    4764.1765    5114.7333    695.09451    739.86265     989.6424   -3675.0776 
 2485000    257.54485   -4860.2953   -4345.1738   -4860.2953            0    6515.1079     18.06827    22.955209    19.250678    7984.4289    6714.1163      6924.56    5906.6473   -763.46114    489.43748   -214.77048    -3586.524 
 2486000    251.30517   -4832.3902   -4329.7488   -4832.3902            0    5355.5088    18.011166    23.192905    19.270224    8049.7748    5649.8622    4825.5241    5591.1402    658.43376    509.05552    434.75687   -3701.0243 
 2487000    253.61487   -4833.4352   -4326.1741   -4833.4352            0    5369.4071    18.046266    22.822741    19.441249    8007.1753     4433.452    6496.4119    5178.3574   -842.63712    272.17488    2565.4642   -3699.1539 
 2488000    255.43795   -4805.5575     -4294.65   -4805.5575            0    7560.6362    18.070245     22.86856    19.321907    7984.5942    8831.7696    6541.9706    7308.1683   -193.31649   -1443.3938    1975.9534   -3414.2357 
 2489000    260.54002   -4835.9243   -4314.8121   -4835.9243            0    6203.4103    17.990167    22.807272    19.490844    7997.2224    8484.7288    5380.9951     4744.507   -220.12925    -294.6465    1033.7757   -3591.3004 
 2490000    260.88293   -4823.6292   -4301.8312   -4823.6292            0    6283.8035    18.190211     22.69137    19.390317    8003.5627    7081.8748    6170.8951    5598.6405   -500.32348    254.23204    890.74908    -3568.362 
 2491000    240.13893   -4809.5261   -4329.2186   -4809.5261            0    7863.5527    18.146826    22.753076     19.27988    7960.5877    5828.2132    8169.7765    9592.6686   -1173.8683   -534.15514   -16.068153   -3416.2836 
 2492000    250.65405   -4828.3544   -4327.0154   -4828.3544            0    6219.6515    17.976105    22.930599    19.527006    8049.0875    6087.7152    5484.6647    7086.5747    313.48507   -1145.3234    1302.6434   -3596.9049 
 2493000    248.02188   -4786.9981   -4290.9237   -4786.9981            0    6863.4067    18.070459    22.916271    19.439485     8050.037     6808.385    6645.9026    7135.9324   -446.53203   -353.76824    212.84566   -3485.1492 
 2494000    260.90411   -4818.2887   -4296.4482   -4818.2887            0    7118.9472    18.076417    22.772967    19.370343     7973.872    7974.3821    7857.3878    5525.0718   -1871.4826   -705.27939   -938.54945   -3468.5806 
 2495000    265.79855   -4820.2495   -4288.6195   -4820.2495            0    4454.7884    18.245836    22.874069    19.429832     8109.167    2188.2339     5260.575    5915.5563   -241.67151    1526.5578    541.48127    -3761.779 
 2496000    261.57793   -4840.5277   -4317.3395   -4840.5277            0    7594.0931    18.018926    22.876629    19.384379     7990.479    7645.3778    8256.9466     6879.955   -930.64311    2205.3486   -899.91274   -3432.3775 
 2497000    256.29305   -4830.2072   -4317.5894   -4830.2072            0    4917.5146    18.142959    22.959444    19.337584    8055.1139    4697.7162    5024.0593    5030.7684     163.6397    -333.8849   -1063.2444   -3739.9016 
 2498000    262.10936   -4813.3537   -4289.1026   -4813.3537            0    4877.3933    17.904972    22.885376    19.660625    8056.1775     4464.053    4741.1688    5426.9579   -760.41326   -478.52127   -194.54615   -3716.0523 
 2499000    251.12962   -4834.1696   -4331.8793   -4834.1696            0    6786.9795    18.204781    22.664425    19.401214    8004.9583     7899.169    6458.3719    6003.3975     732.9185   -513.20618   -1133.3048   -3539.5395 
 2500000    268.36299   -4822.0061    -4285.247   -4822.0061            0    6827.7286     18.08308    22.718388    19.450603    7990.6662    6948.4502    7597.4435    5937.2921   -714.81289     583.2792   -1580.1272   -3489.5731 
Loop time of 516.08 on 64 procs for 250000 steps with 1008 atoms

Performance: 83.708 ns/day, 0.287 hours/ns, 484.421 timesteps/s
99.3% CPU use with 64 MPI tasks x 1 OpenMP threads

MPI task timing breakdown:
Section |  min time  |  avg time  |  max time  |%varavg| %total
---------------------------------------------------------------
Pair    | 28.48      | 32.337     | 35.77      |  31.4 |  6.27
Bond    | 0.29164    | 0.29876    | 0.30755    |   0.6 |  0.06
Kspace  | 236        | 246.05     | 257.48     |  31.8 | 47.68
Neigh   | 4.0471     | 4.8757     | 5.7473     |  18.9 |  0.94
Comm    | 95.236     | 109.17     | 122.94     |  53.7 | 21.15
Output  | 1.3308     | 1.3326     | 1.339      |   0.1 |  0.26
Modify  | 107.39     | 113.27     | 119.26     |  27.9 | 21.95
Other   |            | 8.746      |            |       |  1.69

Nlocal:        15.7500 ave          20 max          12 min
Histogram: 3 8 4 12 0 18 5 8 5 1
Nghost:        2497.48 ave        2529 max        2469 min
Histogram: 3 4 3 12 11 12 11 4 1 3
Neighs:        5235.77 ave        6621 max        3945 min
Histogram: 3 8 4 9 5 16 5 8 4 2

Total # of neighbors = 335089
Ave neighs/atom = 332.42956
Ave special neighs/atom = 2.0000000
Neighbor list builds = 9405
Dangerous builds = 0

unfix		3
unfix		2
unfix		1

write_data	data.final.${pid}
write_data	data.final.0
System init for write_data ...
PPPM initialization ...
  extracting TIP4P info from pair style
  using 12-bit tables for long-range coulomb (../kspace.cpp:340)
  G vector (1/distance) = 0.37874103
  grid = 24 27 36
  stencil order = 5
  estimated absolute RMS force accuracy = 0.00251126
  estimated relative force accuracy = 7.5625848e-06
  using double precision FFTW3
  3d grid and FFT values/proc = 4050 480
Last active /omp style is kspace_style pppm/tip4p/omp
WARNING: Not all mixed pair coeffs generated from mixing. Use write_data with 'pair ij' option to store all pair coeffs. (../write_data.cpp:312)

write_restart   restart.lmp.${pid}
write_restart   restart.lmp.0
System init for write_restart ...
PPPM initialization ...
  extracting TIP4P info from pair style
  using 12-bit tables for long-range coulomb (../kspace.cpp:340)
  G vector (1/distance) = 0.37874103
  grid = 24 27 36
  stencil order = 5
  estimated absolute RMS force accuracy = 0.00251126
  estimated relative force accuracy = 7.5625848e-06
  using double precision FFTW3
  3d grid and FFT values/proc = 4050 480
Last active /omp style is kspace_style pppm/tip4p/omp
Total wall time: 0:08:37
