LAMMPS data file via write_data, version 30 Jul 2021, timestep = 6750000

864 atoms
2 atom types
576 bonds
1 bond types
288 angles
1 angle types

-0.2630332929169654 18.47060569291541 xlo xhi
0.7817127950073193 22.847465004990156 ylo yhi
-0.32090000298319055 22.53409580298634 zlo zhi

Masses

1 1.00794
2 15.9994

Pair Coeffs # lj/cut/tip4p/long/omp

1 0 0
2 0.21084 3.1668

Bond Coeffs # harmonic/omp

1 450 0.9572

Angle Coeffs # harmonic/omp

1 55 104.52

Atoms # full

810 1 1 0.5897 2.651652546561922 4.040494910956694 1.3808214681922555 7 1 -2
252 1 1 0.5897 6.681697895422882 3.1127392668502076 1.7917878414083863 5 -3 4
713 1 1 0.5897 3.9861957022250047 3.861703808625144 4.568175286900664 -5 -1 1
720 1 1 0.5897 6.3417219419862585 3.4666206101544867 4.571024313976013 4 6 1
808 1 2 -1.1794 2.9346563264305487 4.954922288858869 1.3721664332466947 7 1 -2
712 1 2 -1.1794 3.5115605078967884 4.632743601278015 4.257455094527779 -5 -1 1
809 1 1 0.5897 3.2020581406107333 5.131943429928006 2.274109387952655 7 1 -2
719 1 1 0.5897 5.695843332402924 2.7277641181094365 3.4181503887911795 4 6 1
241 1 2 -1.1794 7.928919199128966 4.234755159298598 1.9344381900809684 2 -3 3
250 1 2 -1.1794 5.869123054270253 2.6088775044502457 1.7449311081661434 5 -3 4
10 1 2 -1.1794 7.943979401608031 4.475732384269862 4.667261256660838 -1 2 5
242 1 1 0.5897 7.938613683822792 4.483570188371951 2.8587414812577134 2 -3 3
349 1 2 -1.1794 2.054013332389962 2.3440362581103535 1.8404916955366235 -9 3 -4
350 1 1 0.5897 2.017177377032146 2.2129444830764493 0.8929748009258689 -9 3 -4
351 1 1 0.5897 1.4236449799708522 3.0440717487022497 2.0106061757303464 -9 3 -4
718 1 2 -1.1794 5.685320547199437 2.7986497416622123 4.372712656803971 4 6 1
12 1 1 0.5897 7.7144547070723775 5.397516313393295 4.785605502666762 -1 2 5
714 1 1 0.5897 2.6027466143107447 4.474264942058057 4.5131376517245085 -5 -1 1
666 1 1 0.5897 -0.06488916004252887 5.041161341912373 2.255710747407224 5 2 4
588 1 1 0.5897 6.981511263787369 1.291612503594476 2.1394965605149805 -1 2 6
558 1 1 0.5897 7.28786168129459 5.633344653161585 1.1237029250965518 4 2 -2
243 1 1 0.5897 8.778432363021132 3.8181674738903317 1.7891140812473747 2 -3 3
116 1 1 0.5897 4.355861855674549 5.706276540859263 5.2926683396769025 -3 -1 4
556 1 2 -1.1794 6.8595495908539785 6.177865070478896 0.4631091216068163 4 2 -2
251 1 1 0.5897 5.250306154363744 3.191724677815571 1.3047455538224446 5 -3 4
587 1 1 0.5897 7.712063664235227 0.8231437493781693 3.3800520547602906 -1 2 6
664 1 2 -1.1794 0.10176113787817492 4.291997303322356 2.8278292244451766 5 2 4
88 1 2 -1.1794 8.701700741233905 1.3833587688380047 4.874328944669776 6 1 7
428 1 1 0.5897 -0.2162575119848429 1.117641101787858 5.224374425992255 0 2 -1
149 1 1 0.5897 4.0510379950229085 4.878042843728564 -0.19188775900143185 -1 -1 2
53 1 1 0.5897 0.8611255905948922 9.930614820160306 3.745664144682528 -4 0 3
769 1 2 -1.1794 3.3023354931921087 7.575353361877815 0.0456624311072415 5 2 0
298 1 2 -1.1794 7.565397606891632 8.028795121204235 2.4366283617658966 -7 0 1
557 1 1 0.5897 7.580789041213962 6.566312307257835 -0.032123795279354384 4 2 -2
64 1 2 -1.1794 7.3998881945987325 7.177807475643658 5.0233460850878915 5 -2 -4
770 1 1 0.5897 2.9556180241033947 6.834660528820268 0.5431518061994874 5 2 0
584 1 1 0.5897 7.739840316783962 11.17209341307817 1.8506405452927583 5 -4 0
771 1 1 0.5897 3.0425179505067343 8.34612965696218 0.5504194121088559 5 2 0
366 1 1 0.5897 -0.22322798506203145 7.147438537924954 1.1314387587802042 2 3 2
284 1 1 0.5897 0.806312153587702 10.802290201217762 -0.2531799375024728 7 1 1
65 1 1 0.5897 7.483430424127236 7.4957584648241316 4.124299736800953 5 -2 -4
73 1 2 -1.1794 2.2222877560486816 10.241518868639458 1.1360520726668115 3 -1 1
300 1 1 0.5897 7.1233138873751765 8.872838007251987 2.3444665449043387 -7 0 1
74 1 1 0.5897 1.8920541979893768 10.115336276694803 2.0256657592134273 3 -1 1
52 1 2 -1.1794 1.4011356437754052 9.209949023062421 3.4210759228929666 -4 0 3
75 1 1 0.5897 2.9781618005020043 10.81955088997658 1.2404365503033878 3 -1 1
299 1 1 0.5897 7.354519501817178 7.55809953726516 1.63021647073413 -7 0 1
54 1 1 0.5897 1.7932213309686578 8.830675940036041 4.207681261300973 -4 0 3
365 1 1 0.5897 0.11002805902510226 7.877277414547045 2.415338808306984 2 3 2
585 1 1 0.5897 6.229828828624863 11.21766285707357 1.9504453583039543 5 -4 0
583 1 2 -1.1794 6.991825242804411 10.70911298861884 2.2280762783461725 5 -4 0
191 1 1 0.5897 4.951975030802008 11.714075730798633 0.34896186833502507 7 4 -4
111 1 1 0.5897 4.472069925098904 5.645696322677702 7.554470802863147 -2 -3 -4
109 1 2 -1.1794 4.1383804354063525 5.157601923226486 8.307301475679703 -2 -3 -4
470 1 1 0.5897 5.220483226516858 4.0450069952461085 9.360043670923918 -1 -5 1
834 1 1 0.5897 7.885286056061091 3.835178153116734 9.555268959534033 0 -1 2
832 1 2 -1.1794 8.819967284671959 4.030900061233235 9.489013315237091 0 -1 2
71 1 1 0.5897 2.15240152724659 4.900555193501813 7.6803732010302035 5 5 -7
70 1 2 -1.1794 1.7445163718302572 4.324349920119419 7.03386075520365 5 5 -7
72 1 1 0.5897 2.2725681405771634 3.526244925465123 7.056696764165726 5 5 -7
354 1 1 0.5897 0.6638297293911145 2.4303746638134145 10.625733087587031 6 1 -3
833 1 1 0.5897 8.855349701174822 4.963230726491444 9.274893611012194 0 -1 2
469 1 2 -1.1794 5.5199782988696064 3.5398499822296645 10.115982264405908 -1 -5 1
547 1 2 -1.1794 3.406996917700192 2.049668752687968 6.266066657362541 3 -2 5
110 1 1 0.5897 3.8657983192207084 5.832398533938681 8.929147558738133 -2 -3 -4
353 1 1 0.5897 1.3610635355155907 1.6334393376672032 9.543572358149113 6 1 -3
352 1 2 -1.1794 0.5932662343997033 2.182201392332039 9.703868421695534 6 1 -3
548 1 1 0.5897 4.243837923770574 1.767364201013328 5.896831688056199 3 -2 5
839 1 1 0.5897 0.11155404661010593 4.448266106023389 5.934412558123778 0 -3 -3
449 1 1 0.5897 5.330387535347082 1.835731275739431 10.462730503425 3 -2 -4
7 1 2 -1.1794 3.1594338267665365 1.088162612727343 8.787246573507264 1 -1 -2
471 1 1 0.5897 4.992637715221904 3.8646549872100553 10.845871053900542 -1 -5 1
8 1 1 0.5897 3.982189646924187 1.167359519574423 9.270104492828104 1 -1 -2
549 1 1 0.5897 2.794843139701182 1.350813578429582 6.035260668427027 3 -2 5
90 1 1 0.5897 8.765555697477946 2.0731576351437226 5.534990810738766 6 1 7
9 1 1 0.5897 3.353605128538517 1.4477798064285194 7.921597010176319 1 -1 -2
707 1 1 0.5897 9.07930894550876 3.6730863156857883 7.733941785604356 -1 -2 -8
855 1 1 0.5897 5.954285107619442 1.2936408110906688 5.417318293102789 -1 2 1
448 1 2 -1.1794 5.25203113539825 0.8846841094110439 10.538302455389374 3 -2 -4
11 1 1 0.5897 8.499009913195419 4.268168794806481 5.4190707910771145 -1 2 5
31 1 2 -1.1794 5.431111142041195 9.211686494912264 10.66182350479571 4 5 2
696 1 1 0.5897 6.893374591242266 8.308167976901238 10.833089812306524 2 -3 1
457 1 2 -1.1794 3.0988477671433525 11.056162332365771 6.499426496657707 2 0 0
153 1 1 0.5897 2.639654817245322 6.685614273081062 10.423336155462264 3 0 -1
527 1 1 0.5897 8.506874636049085 7.428841208564114 8.065044769031216 -3 -4 0
459 1 1 0.5897 3.414140165045439 11.700154727849844 5.86523948278724 2 0 0
314 1 1 0.5897 2.650545583981637 7.813627340896696 6.047636942552362 -1 -2 0
526 1 2 -1.1794 8.845472155243005 6.798960220089087 8.70141126961131 -3 -4 0
115 1 2 -1.1794 4.596825452141141 6.452917649518373 5.841134940154025 -3 -1 4
413 1 1 0.5897 7.163831489821833 11.16077738789377 7.541662472693636 2 -2 4
438 1 1 0.5897 8.866330386013942 9.555994264563033 6.794440040596786 -4 3 3
151 1 2 -1.1794 3.277221995623405 7.274563325059808 10.01961588713058 3 0 -1
458 1 1 0.5897 2.8031867686561482 10.318570058824998 5.965694953562198 2 0 0
33 1 1 0.5897 4.837235145364842 8.510753573905202 10.392863001106862 4 5 2
66 1 1 0.5897 7.934010997451624 7.779968073075966 5.541475455750954 5 -2 -4
152 1 1 0.5897 2.7660790241829902 8.042259455571553 9.763276540013747 3 0 -2
315 1 1 0.5897 1.3471004654619483 8.388169160377522 6.560537975690874 -1 -2 0
412 1 2 -1.1794 7.992629768547104 11.276174749218416 7.076785080507813 2 -2 4
48 1 1 0.5897 1.2031052506171518 9.177279718837228 8.534640612427253 3 -3 1
785 1 1 0.5897 4.815200406349383 10.520870674625307 7.703810380818593 4 4 3
786 1 1 0.5897 5.2853109092633215 10.365112676963737 9.134519105880456 4 4 3
47 1 1 0.5897 1.2297167052946234 9.988307030957072 9.812797594791354 3 -3 1
46 1 2 -1.1794 1.8008696238143918 9.543406825863457 9.186537923250077 3 -3 1
784 1 2 -1.1794 5.452338712489624 10.86026467899645 8.332489099552815 4 4 3
313 1 2 -1.1794 2.095384366249472 8.591973737367676 5.999389240422783 -1 -2 0
117 1 1 0.5897 5.355508933396784 6.837998233026571 5.402446720227085 -3 -1 4
528 1 1 0.5897 8.543734708179132 7.127639445601079 9.548348706673972 -3 -4 0
694 1 2 -1.1794 7.80142183508829 8.019838669427234 10.926046203379936 2 -3 1
695 1 1 0.5897 8.314561631216735 8.827076413156105 10.888794262647062 2 -3 1
197 1 1 0.5897 3.418794825249757 3.6910248021748466 12.68225845318593 -1 -1 1
196 1 2 -1.1794 3.7520125769163135 4.52677254783217 12.355422469125656 -1 -1 1
286 1 2 -1.1794 2.805531991523064 2.292008582462977 13.568348036518437 2 0 1
287 1 1 0.5897 2.531137796256076 2.248692495640822 14.484414402473554 2 0 1
614 1 1 0.5897 1.0846235919256424 2.776951026322358 12.713507929306129 -6 3 3
488 1 1 0.5897 5.288225167357862 4.778914757335285 13.61657910966037 0 -9 1
487 1 2 -1.1794 5.812686630745212 4.9414350030152585 14.400725703166101 0 -9 1
5 1 1 0.5897 7.918724727353348 4.984267391676538 14.66834903752354 -1 1 0
4 1 2 -1.1794 8.742731868385214 5.405956021117914 14.912311227555577 -1 1 0
6 1 1 0.5897 8.662265892157064 5.56375584427996 15.853028970737927 -1 1 0
136 1 2 -1.1794 1.3736830216042377 5.792355366647419 11.217575777659755 4 -5 0
613 1 2 -1.1794 0.5248129063295692 3.3022532455764404 12.141667111792684 -6 3 4
137 1 1 0.5897 1.241871371325548 4.845207040550141 11.260694708643221 4 -5 0
727 1 2 -1.1794 2.4187483527523326 1.7903429324313116 16.09657098208501 0 3 -1
138 1 1 0.5897 0.7863361531819193 6.147040471531311 11.885067862447297 4 -5 0
489 1 1 0.5897 5.542918714435463 5.811919014236983 14.693738190046247 0 -9 1
198 1 1 0.5897 2.9963085537348064 5.113703394473945 12.382871396568037 -1 -1 1
288 1 1 0.5897 3.16542798699104 1.424279387065328 13.38434274880321 2 0 1
728 1 1 0.5897 1.5016351115655504 1.6403593265875536 16.3262264292528 0 3 -1
402 1 1 0.5897 3.861077093940775 3.053839575498351 16.501065287690516 -3 -4 3
401 1 1 0.5897 4.707407833153549 4.163125038630625 15.913394548815003 -3 -4 3
102 1 1 0.5897 7.045975087076575 1.007886386756591 16.435241230917192 6 -4 0
729 1 1 0.5897 2.9086459702188985 1.1946489515173484 16.663557460708148 0 3 -1
400 1 2 -1.1794 4.40965592126601 3.798773236307265 16.747017122406778 -3 -4 3
142 1 2 -1.1794 -0.2616232095644264 1.3260720053946318 16.055809193446027 -1 4 4
419 1 1 0.5897 -0.08457894106630703 11.241134947378212 14.357554004938006 -4 -1 6
863 1 1 0.5897 0.7678750204760347 9.975812108888272 12.95360205338542 0 0 2
730 1 2 -1.1794 5.009839794667357 7.096089297232823 15.95375020851495 1 1 -5
598 1 2 -1.1794 2.2651098351621988 7.201250698766108 16.481726163637113 -1 -2 -3
731 1 1 0.5897 4.05549737446407 7.058332920206234 16.01823368690842 1 1 -5
515 1 1 0.5897 2.0663388401638767 10.616837857421748 16.156781263313412 -2 -4 0
862 1 2 -1.1794 1.303163390680392 9.997468818012381 13.74689931361554 0 0 2
608 1 1 0.5897 6.481827338467853 8.273366066635731 15.678292555672531 3 5 2
607 1 2 -1.1794 7.282006894930051 8.79441845542026 15.610738679118118 3 5 2
45 1 1 0.5897 8.838804330936298 6.837755675341787 13.664071913510371 1 4 -1
43 1 2 -1.1794 8.74445845501844 7.774591039819457 13.491541642292805 1 4 -1
219 1 1 0.5897 0.9037428861620311 8.228674594022474 14.031019286834484 5 -2 -2
795 1 1 0.5897 4.304323010564486 11.242340579761057 12.442306281506738 -3 2 7
842 1 1 0.5897 6.043366591549891 10.334125447589857 15.227745062390717 -1 2 0
609 1 1 0.5897 7.797896400358859 8.355375090390098 14.93439806130219 3 5 2
794 1 1 0.5897 4.513172791796484 10.385735881102223 13.67305850248112 -3 2 7
217 1 2 -1.1794 0.780577874860465 7.279387090494753 14.04000288316591 5 -2 -2
535 1 2 -1.1794 0.19733362574821423 10.495093521019777 11.354512057916835 9 6 3
44 1 1 0.5897 8.229876811176087 7.819564637545561 12.685610076801813 1 4 -1
599 1 1 0.5897 1.905212012902854 8.087561561098973 16.446294299472193 -1 -2 -3
864 1 1 0.5897 2.1676526313954407 10.277114318963802 13.445540519647396 0 0 2
841 1 2 -1.1794 5.131496867535529 10.618510396757145 15.29056476971809 -1 2 0
793 1 2 -1.1794 4.06348058673968 10.400046280750493 12.828128989558472 -3 2 7
218 1 1 0.5897 0.9267895194985016 7.027017466730996 14.951774839664973 5 -2 -2
32 1 1 0.5897 4.9985072580983685 9.617713558536014 11.413056587594422 4 5 2
843 1 1 0.5897 5.179717987961163 11.574034635899366 15.32189252482729 -1 2 0
537 1 1 0.5897 0.09306525277337135 11.434536148093391 11.203026989228233 9 6 3
113 1 1 0.5897 7.782008380133352 4.940753388126611 18.104667473936363 -5 -2 2
672 1 1 0.5897 1.909821306899984 5.223504781164752 18.729115018983382 4 3 2
670 1 2 -1.1794 1.1326594804701926 5.758784794649507 18.56810324339888 4 3 2
844 1 2 -1.1794 6.694532579966448 3.609398491737114 18.433943351275268 -1 -2 2
831 1 1 0.5897 6.401052660071613 2.789659435370869 20.178354681186313 3 4 3
829 1 2 -1.1794 6.392464708293728 2.420106320309855 21.061356647683525 3 4 3
845 1 1 0.5897 5.9586071388688575 3.7471251699527435 17.83747797654869 -1 -2 2
830 1 1 0.5897 5.906641164955312 3.0582869892534403 21.583892391957008 3 4 3
846 1 1 0.5897 7.109979210514565 2.8057950734592025 18.120969224517246 -1 -2 2
156 1 1 0.5897 4.904490149099426 1.2828727190530405 21.128945176608337 5 5 -7
112 1 2 -1.1794 8.388406179170438 5.626152161003679 17.82380940486138 -5 -2 2
767 1 1 0.5897 8.54188840310815 2.3201978770557092 21.456741642835087 0 -1 0
660 1 1 0.5897 2.3329058246120216 3.0885167325735936 21.276088070436817 -1 -2 3
114 1 1 0.5897 9.022327610798962 5.693122529962784 18.537955185180873 -5 -2 2
659 1 1 0.5897 2.876877930703375 1.7171276588824602 21.615965292415545 -1 -2 3
658 1 2 -1.1794 2.1884918507409306 2.338563306129828 21.85318710057594 -1 -2 3
228 1 1 0.5897 4.096144484565857 4.339281731601833 20.064472523960497 3 -2 -1
226 1 2 -1.1794 3.328653199054322 4.071460441549645 19.558931589215394 3 -2 -1
227 1 1 0.5897 3.6763492868036205 3.8464668617533455 18.695878056324798 3 -2 -1
100 1 2 -1.1794 7.453897645093621 1.151781556882086 17.289183933700436 6 -4 0
150 1 1 0.5897 5.442861898217061 5.277292345994479 22.22086659086701 -1 -1 1
623 1 1 0.5897 1.08620950758822 1.4148761545355844 20.637424835407465 6 -1 0
148 1 2 -1.1794 4.724578971200103 4.6798401026639205 22.012397456192634 -1 -1 1
671 1 1 0.5897 1.1628400860966388 6.435334643318345 19.244644320596922 4 3 2
590 1 1 0.5897 5.310518888919905 11.416033007519587 20.853612959395942 2 3 1
732 1 1 0.5897 5.310560244994634 7.129744652132598 16.8619576822391 1 1 -5
792 1 1 0.5897 8.631239000156764 10.501583087150971 19.280665626323568 2 3 1
295 1 2 -1.1794 4.779664061218985 10.06784787133396 17.948550567667976 0 5 2
600 1 1 0.5897 1.8513495452408248 6.804682159711384 17.248452235621603 -1 -2 -3
285 1 1 0.5897 0.7236533657730833 11.640597353116867 21.343816474917197 7 1 0
309 1 1 0.5897 6.743376755719356 6.814151748280603 18.571185554517353 1 4 -4
689 1 1 0.5897 4.6645618400711095 7.95005482270758 21.800000015386615 1 -4 6
291 1 1 0.5897 8.476388161325868 9.306213117694236 16.879885068981768 -6 -7 -8
569 1 1 0.5897 1.76656203593515 8.402687540812133 20.81918838459331 -1 0 1
293 1 1 0.5897 0.18027774647087308 10.319820644015104 17.50102812369722 -1 1 2
642 1 1 0.5897 0.3678318290047685 7.351748585503928 21.68205897464826 5 1 -5
382 1 2 -1.1794 8.662305470269537 7.569742029501185 21.76699251409389 -11 -3 1
589 1 2 -1.1794 5.635238878221537 11.195592913950842 21.72670358102148 2 3 1
690 1 1 0.5897 6.150995262521313 8.237565390831652 21.803536463969557 1 -4 6
688 1 2 -1.1794 5.367462453924557 8.308955001322616 21.25827480851201 1 -4 6
790 1 2 -1.1794 8.623842703662584 11.098391567908127 20.02908728395013 2 3 1
308 1 1 0.5897 5.7829416930424715 7.514394182070736 19.50892328918505 1 4 -4
791 1 1 0.5897 7.696999028518489 11.200250340858672 20.245676908280874 2 3 1
283 1 2 -1.1794 0.24232523201774248 10.986516024805413 21.85061366901319 7 1 0
297 1 1 0.5897 5.025123820290479 9.16442252216572 18.148295700398272 0 5 2
591 1 1 0.5897 5.443711100439749 10.262901696787969 21.82557350839473 2 3 1
307 1 2 -1.1794 5.965213095492 7.37156111538255 18.58010420490979 1 4 -4
570 1 1 0.5897 0.6773194525827146 9.346795765700874 20.356169006684596 -1 0 1
568 1 2 -1.1794 0.9414648611432097 8.426956208346326 20.33445959242792 -1 0 1
486 1 1 0.5897 4.1820774763320285 11.653583274143609 19.031400693894835 0 4 -1
516 1 1 0.5897 2.8458143978957815 10.015146657945252 17.306818670338323 -2 -4 0
296 1 1 0.5897 4.998461952403365 10.17696748315137 17.023051796455935 0 5 2
384 1 1 0.5897 8.970472237522944 8.474423259580306 21.820973538251778 -11 -3 1
514 1 2 -1.1794 1.95606774706166 10.226512381317882 17.023867626881188 -2 -4 0
289 1 2 -1.1794 9.065998915440403 9.60474523369148 17.572389599997315 -6 -7 -8
640 1 2 -1.1794 -0.13155471174156116 6.883688096194091 22.351289918869178 5 1 -5
19 1 2 -1.1794 4.453111823995441 12.967545782556687 4.890377742981063 -4 -4 2
836 1 1 0.5897 3.425166083843899 14.544698685814016 0.08475062481993384 -2 2 -3
76 1 2 -1.1794 8.608587954428494 15.074059200743251 3.491576161625866 -8 -4 -4
78 1 1 0.5897 8.689832517767659 15.793731402931812 2.8656304877259258 -8 -4 -4
702 1 1 0.5897 8.07679541924112 16.940301227890952 0.7195574122246104 3 0 3
369 1 1 0.5897 5.644014070372124 15.326115192480813 1.075699384016025 5 7 -3
837 1 1 0.5897 2.1685566590662027 14.006054722225073 0.7350927694044811 -2 2 -3
835 1 2 -1.1794 2.4726451442220823 14.526501107568832 -0.008546296166769829 -2 2 -3
318 1 1 0.5897 1.0557856703927762 14.246530981191398 3.17879660302316 -5 -7 0
59 1 1 0.5897 2.8671894388404633 16.629987521110266 0.8892639862442513 4 -4 -2
272 1 1 0.5897 7.75771361462755 13.434549923313014 4.220197417971904 -1 5 4
21 1 1 0.5897 5.403278341906047 12.992080340244556 5.004067703687132 -4 -4 2
317 1 1 0.5897 1.8580781866274787 15.27853259192688 2.4149742275135324 -5 -7 -1
20 1 1 0.5897 4.25040617518191 13.759755662581842 4.392729650826726 -4 -4 1
273 1 1 0.5897 7.186068409975828 12.055400162741522 3.968606048888379 -1 5 4
63 1 1 0.5897 4.169116612887275 16.808514673579054 5.233885620364996 -1 1 1
620 1 1 0.5897 9.003295414809577 13.553721330376687 0.18742752239150318 1 -2 5
77 1 1 0.5897 8.095723848925372 15.439697313091672 4.212413814114731 -8 -4 -4
367 1 2 -1.1794 5.381825780016261 14.586314183817905 0.5277191598365824 5 7 -2
58 1 2 -1.1794 2.69961285406225 16.84696106000086 1.8064259115147263 4 -4 -2
60 1 1 0.5897 1.7764085127424716 17.099024734168257 1.828608273926735 4 -4 -2
190 1 2 -1.1794 4.764666021666922 12.03555545114496 1.2309791850366998 7 4 -4
525 1 1 0.5897 0.5238319377286236 15.0960584219294 0.6070208140714354 2 -1 3
192 1 1 0.5897 4.810061043520796 12.98860432806056 1.1536883273247618 7 4 -4
700 1 2 -1.1794 8.96234641070379 16.576723534735642 0.7175651863603112 3 0 3
701 1 1 0.5897 8.86837679723293 15.7183067448461 0.3044801434397095 3 0 3
433 1 2 -1.1794 -0.14361708682218877 13.723260675753782 5.152060275077033 2 3 -2
271 1 2 -1.1794 7.3460875613211245 12.693149192144721 4.664312169809308 -1 5 4
316 1 2 -1.1794 1.8851114674126666 14.37062081222285 2.7171191756719493 -5 -7 0
368 1 1 0.5897 6.134399810219535 14.432090073638028 -0.043422807673691444 5 7 -2
678 1 1 0.5897 -0.20327634453417887 12.129649681581911 4.232935711788904 7 1 -3
736 1 2 -1.1794 5.264315121616554 21.02937052695905 0.3898691914165855 1 -2 0
783 1 1 0.5897 0.3369610486967263 20.140484554931813 1.3126029316643721 -4 -2 2
782 1 1 0.5897 1.6811134664021752 20.494895633283463 1.9124152557169736 -4 -2 2
788 1 1 0.5897 2.6493045446493104 22.70207162903165 2.43761508827782 1 -3 4
233 1 1 0.5897 6.332079694851022 20.90339786681559 3.474328962431118 0 2 0
38 1 1 0.5897 4.677955665966509 19.359123703780718 -0.18888230051715185 -2 1 -2
586 1 2 -1.1794 7.381092423184683 22.582897675925697 2.53557180313122 -1 1 6
232 1 2 -1.1794 5.751352236049213 20.43917902424542 4.077311193728835 0 2 0
465 1 1 0.5897 3.8323789846678915 17.912632074290503 3.240810781976198 9 2 -3
529 1 2 -1.1794 8.694443271016967 20.576020160764077 1.0617848992153915 -5 -4 -3
781 1 2 -1.1794 1.1466447413677399 19.748841068129625 1.6402491507796408 -4 -2 2
15 1 1 0.5897 6.140303706606491 17.797397052637713 2.1349451544531677 0 -5 -3
175 1 2 -1.1794 1.4168104185854473 22.127360392042554 5.207109384670001 0 -3 4
464 1 1 0.5897 4.547603388519527 18.985018693981605 4.034898111921371 9 2 -3
234 1 1 0.5897 6.341230119747104 20.02217716718283 4.705390684526704 0 2 0
13 1 2 -1.1794 6.258334430444767 17.346972067949665 1.2985741685855225 0 -5 -3
14 1 1 0.5897 5.574918353200686 17.707296222925518 0.7333832569064573 0 -5 -3
463 1 2 -1.1794 3.994456708506487 18.210333362701295 4.136038940551635 9 2 -3
787 1 2 -1.1794 2.786058090888981 21.766559300338333 2.5875347687189847 1 -3 4
513 1 1 0.5897 1.7156550978999945 18.871469963425 -0.027238499126140847 -1 2 -8
738 1 1 0.5897 6.01182500354784 21.061164211430125 -0.20727351001995897 1 -2 0
531 1 1 0.5897 8.151866476864283 21.23657974933387 1.49259948467067 -5 -4 -3
789 1 1 0.5897 3.70909806506429 21.622445383400905 2.378747873543841 1 -3 4
176 1 1 0.5897 1.52153515297911 22.05053883980235 4.258712364883151 0 -3 4
439 1 2 -1.1794 -0.007261612240624493 17.685313324096256 2.570908378208201 4 1 0
441 1 1 0.5897 0.3265506655544136 18.535600259365015 2.28468844047096 4 1 0
854 1 1 0.5897 5.513177526912776 21.918712403263175 5.268977439983803 -1 1 1
737 1 1 0.5897 4.530106241571623 21.36161250877636 -0.1267874079903457 1 -2 0
2 1 1 0.5897 7.784436360421694 15.465626240892114 8.833572896741568 -3 -5 3
1 1 2 -1.1794 7.46232894097108 14.832039701307343 8.192357898838369 -3 -5 3
211 1 2 -1.1794 2.2038257111429562 13.121609818679435 8.425041898441957 3 2 3
3 1 1 0.5897 6.522527692485744 14.772958447407664 8.364526778417995 -3 -5 3
122 1 1 0.5897 1.6084245996734738 14.575806681677625 7.3617883416222485 1 -4 1
24 1 1 0.5897 4.097237779969769 13.781572991310105 8.347569098229487 -4 1 1
121 1 2 -1.1794 1.4134183105340576 15.30941762511675 6.7785794931654335 1 -4 1
123 1 1 0.5897 2.2709803313961303 15.61684570760418 6.484620969226254 1 -4 1
22 1 2 -1.1794 4.974065417011284 13.590268015529668 8.680585029006615 -4 1 1
212 1 1 0.5897 1.8582299252970644 12.919483346199389 9.294544549373166 3 2 3
755 1 1 0.5897 0.44544591606343975 17.195893737878798 7.1532472003926575 -3 1 -4
23 1 1 0.5897 5.132775796242746 12.680196853928306 8.42977556935306 -4 1 1
213 1 1 0.5897 2.3158556319357753 12.267833044984531 8.006873318259151 3 2 3
327 1 1 0.5897 7.283750576204182 15.643333664779172 6.409630770578002 0 -2 -2
381 1 1 0.5897 7.315004300038038 16.693965769691424 10.464311904726078 8 5 0
379 1 2 -1.1794 7.930069219374968 17.058360456973787 9.827681536596222 8 5 0
668 1 1 0.5897 0.013313188859711 13.979369786961325 10.805839227237115 -5 -1 -2
435 1 1 0.5897 0.6338582434509334 14.11040977373039 5.554522315112438 2 3 -2
62 1 1 0.5897 4.9111678498048725 15.86708135348422 6.158650806149561 -1 1 1
667 1 2 -1.1794 0.03971782936471879 13.124841197396204 10.375241710972379 -5 -1 -1
326 1 1 0.5897 7.178035375336865 17.031546383542118 5.814775746204896 0 -2 -2
281 1 1 0.5897 8.83932025759364 13.556186367623324 8.536629058719306 -4 0 1
452 1 1 0.5897 4.7093557580285745 13.247537146999194 10.864134184115613 -3 -4 3
325 1 2 -1.1794 6.9979978429511105 16.110794438178505 5.6246704208681155 0 -2 -2
414 1 1 0.5897 7.775441614620057 11.842095350929874 6.335896626546845 2 -2 4
61 1 2 -1.1794 4.056987629122904 16.010939523195407 5.751212035764434 -1 1 1
534 1 1 0.5897 0.43502163683697315 17.88166577844451 9.283675552877986 -8 -2 -4
649 1 2 -1.1794 2.9447652246265807 18.50918548827597 11.079261660915321 1 -3 0
450 1 1 0.5897 5.850847218422343 22.60686268720168 9.87519063952714 3 -3 -4
651 1 1 0.5897 2.111341390451345 18.179106033501977 10.74343276498705 1 -3 0
723 1 1 0.5897 8.606181146137303 21.455823702350408 9.683293150109442 -1 1 0
267 1 1 0.5897 8.349579678973663 19.04512130955331 5.827374467419813 -5 0 -3
533 1 1 0.5897 0.04956527135178301 18.63632260081316 10.538302735296172 -8 -2 -4
266 1 1 0.5897 7.22302906291358 19.135781480487474 6.8347411939286 -5 0 -3
380 1 1 0.5897 8.663489501940113 17.373677512128715 10.355919368722247 8 5 0
262 1 2 -1.1794 3.705451235147956 20.069947762375545 8.806773217515087 5 -3 6
265 1 2 -1.1794 7.41837519548578 18.85456890452981 5.940826890061869 -5 0 -3
778 1 2 -1.1794 6.581256180817621 19.44362356594895 8.774754234865444 -1 0 -1
205 1 2 -1.1794 6.831821142295361 22.06212175747382 8.496592404404634 -5 2 -3
639 1 1 0.5897 3.113933871593233 19.11158768526134 5.573007934731583 -5 -2 1
206 1 1 0.5897 6.772988652071594 21.10935005480896 8.567941481480416 -5 2 -3
638 1 1 0.5897 3.0998089720374167 19.597973035892977 7.006658751607006 -5 -2 1
637 1 2 -1.1794 2.616782898782492 19.657359764836297 6.182351370658469 -5 -2 1
264 1 1 0.5897 3.0655297533061323 20.78151354328493 8.829231357471059 5 -3 6
207 1 1 0.5897 6.278496288521592 22.281276665985605 7.746827818994307 -5 2 -3
177 1 1 0.5897 1.760006191874285 21.30380795835592 5.55395410808526 0 -3 4
263 1 1 0.5897 3.4917721325643787 19.53088961806228 9.568408395530371 5 -3 6
780 1 1 0.5897 6.808820437784756 18.540565229295527 8.99619913009472 -1 0 -1
779 1 1 0.5897 5.624111696641336 19.454351994619508 8.764636024405505 -1 0 -1
756 1 1 0.5897 0.9549647464725712 18.59511609662442 6.8798191765871195 -3 1 -4
754 1 2 -1.1794 0.43939882455935675 18.08597517479044 7.505455996821553 -3 1 -4
853 1 2 -1.1794 5.801231364636204 22.55901049521393 5.919663954129819 -1 1 1
532 1 2 -1.1794 0.3795530960719462 17.790481704017804 10.234968039221368 -8 -2 -4
722 1 1 0.5897 9.033968414790243 20.194986129432536 10.404040760209359 -1 1 0
312 1 1 0.5897 3.590661486861142 15.063719881405449 15.16182242151853 -1 1 2
310 1 2 -1.1794 3.2320284831612325 15.89258587280506 14.844495941178227 -1 1 2
311 1 1 0.5897 2.2936158341183 15.832295853857113 15.023631474171436 -1 1 2
246 1 1 0.5897 7.864569450928775 13.788673496261758 12.50159569836627 -3 2 -1
244 1 2 -1.1794 7.159181153162667 13.999158895984683 13.113531945664686 -3 2 -1
360 1 1 0.5897 3.190556759826098 16.06981700247019 12.965425904860158 1 -4 -5
451 1 2 -1.1794 4.5816535412913355 13.25978176570465 11.812748615092236 -3 -4 3
245 1 1 0.5897 6.385472999693692 13.574176804361604 12.74326505069938 -3 2 -1
453 1 1 0.5897 3.8554366658568577 13.868295948938519 11.94931536877637 -3 -4 3
56 1 1 0.5897 5.320855719121397 13.347094952852881 15.594358315642523 -4 -1 -2
497 1 1 0.5897 6.798338620382539 15.544914217117885 12.33634446968727 3 -2 2
498 1 1 0.5897 5.471619631146976 16.25998647017869 12.192720875826737 3 -2 1
40 1 2 -1.1794 -0.12747087292635234 15.60510794151187 11.792798296809131 -2 -1 4
496 1 2 -1.1794 6.403982897049038 16.347256191608942 11.99420185794838 3 -2 2
41 1 1 0.5897 0.08201244315672612 16.43978801527639 11.373565982249456 -2 -1 4
164 1 1 0.5897 7.295520885618544 13.38110609414934 14.712263768914777 -4 3 -2
163 1 2 -1.1794 7.161667414400364 12.82187120147661 15.477567535020636 -4 3 -2
425 1 1 0.5897 -0.11755024904922501 15.256419935831937 14.905615110122366 5 -5 2
358 1 2 -1.1794 3.6294464394513 16.0826639920177 12.114773459441537 1 -4 -5
55 1 2 -1.1794 4.403648973962546 13.41338309605675 15.860179146373305 -4 -1 -2
359 1 1 0.5897 3.3073930884604272 16.878058600142985 11.690563906081069 1 -4 -5
426 1 1 0.5897 0.0012647455628047588 16.764515871097622 14.966377217217243 5 -6 2
42 1 1 0.5897 0.012325469506639097 15.763696858345083 12.726447689814375 -2 -1 4
473 1 1 0.5897 7.240932255043709 17.29079163328673 13.5956097682883 3 2 -2
424 1 2 -1.1794 0.4066044598412428 15.988186885554647 14.579880092095326 5 -5 2
165 1 1 0.5897 7.317685091237432 13.397939254465955 16.226010256229298 -4 3 -2
57 1 1 0.5897 4.432040795405951 13.842455852135796 16.715406605582892 -4 -1 -2
474 1 1 0.5897 7.615869552206521 18.380509587299468 14.577477785342763 3 2 -2
509 1 1 0.5897 8.666379803703189 21.83784635311814 12.39536524257188 4 0 3
582 1 1 0.5897 4.1262334603988915 17.52741537662689 15.41840561945199 -5 -3 1
378 1 1 0.5897 7.099316871175213 22.580828604027616 14.141246238388987 1 4 1
650 1 1 0.5897 2.7014725596410756 19.07008848100378 11.815826992378128 1 -3 0
376 1 2 -1.1794 6.440832279697486 22.370393700124936 14.80339923641026 1 4 1
851 1 1 0.5897 6.711176446732803 20.006099175930554 16.56199680592431 -6 -2 -2
850 1 2 -1.1794 6.418395903573688 19.755380667347683 15.685760183113452 -6 -2 -2
852 1 1 0.5897 6.456224763643067 20.566522972548597 15.178852869001721 -6 -2 -2
508 1 2 -1.1794 8.707761384426776 22.318267857970085 13.222333773054148 4 0 3
581 1 1 0.5897 4.904295254264565 18.807716875393087 15.636636229891211 -5 -3 1
821 1 1 0.5897 1.520044923247279 19.893324239882585 14.106543417549886 2 1 3
822 1 1 0.5897 2.8681013838201235 19.265410165649442 14.390456347997775 2 1 3
472 1 2 -1.1794 7.972572767786678 17.843970763270445 13.869512662672456 3 2 -2
820 1 2 -1.1794 2.3766500653236595 19.728847349769502 13.712203519820847 2 1 3
580 1 2 -1.1794 4.0259558779876405 18.43401653818145 15.708835922392513 -5 -3 1
398 1 1 0.5897 3.730705025469644 21.191968375294856 13.083099561503637 3 3 -4
377 1 1 0.5897 5.604308153512498 22.45835718006727 14.346427262443049 1 4 1
397 1 2 -1.1794 4.119203589469518 22.065568758401156 13.0360335510677 3 3 -4
399 1 1 0.5897 4.52111847687923 22.10305270822221 12.16802262361283 3 3 -4
27 1 1 0.5897 8.725078795861695 18.48894328881213 12.207063151721048 -2 7 7
824 1 1 0.5897 -0.1952454838961344 21.25602167737604 15.31112631133504 1 6 3