LAMMPS (30 Jul 2021)
  using 1 OpenMP thread(s) per MPI task
package omp 0
using multi-threaded neighbor list subroutines
echo both

include		in.partitions
variable        pid world 0
include		in.temp
variable        temperature equal 200.21
variable	tempDamp equal 100.0
include		in.pressure
variable        pressure equal -750.0
variable        pressureDamp equal 1000.0 # This is 1 ps
include		in.seed
variable        seed world 745823

units		real
atom_style	full

read_restart	restart.lmp.${pid}
read_restart	restart.lmp.0
Reading restart file ...
  restart file = 30 Jul 2021, LAMMPS = 30 Jul 2021
  restoring atom style full from restart
  orthogonal box = (-0.15925104 -0.11922038 -0.23698590) to (20.159252 20.119221 20.936984)
  4 by 4 by 4 MPI processor grid
  restoring pair style lj/cut/tip4p/long/omp from restart
  restoring bond style harmonic/omp from restart
  restoring angle style harmonic/omp from restart
  972 atoms
  648 bonds
  324 angles
Finding 1-2 1-3 1-4 neighbors ...
  special bond factors lj:    0        0        0       
  special bond factors coul:  0        0        0       
     2 = max # of 1-2 neighbors
     1 = max # of 1-3 neighbors
     1 = max # of 1-4 neighbors
     2 = max # of special neighbors
  special bonds CPU = 2.301 seconds
  read_restart CPU = 2.756 seconds
include 	in.setup
variable	out_freq equal 1000
variable	out_freq2 equal 10000
variable	out_freq3 equal 1000

timestep	2.0

neigh_modify    delay 7 every 1

include		in.tip4p
# This is TIP4P/Ice

# create groups ###
group ox type 2
324 atoms in group ox
group hy type 1
648 atoms in group hy

# set charges - beside manually ###
set group ox charge -1.1794
Setting atom values ...
  324 settings made for charge
set group hy charge 0.5897
Setting atom values ...
  648 settings made for charge

# ### TIP3P Potential Parameters ###
pair_style lj/cut/tip4p/long/omp 2 1 1 1 0.1577 8.5
pair_coeff 1 1*2 0.000 0.000
pair_coeff 2 2 0.21084 3.1668
bond_style  harmonic
bond_coeff  1 450 0.9572
angle_style harmonic
angle_coeff 1 55 104.52
kspace_style pppm/tip4p/omp 1.0e-5
pair_modify tail yes

thermo          ${out_freq}
thermo          1000
thermo_style    custom step temp pe etotal epair emol press lx ly lz vol pxx pyy pzz pxy pxz pyz enthalpy

restart 	${out_freq3} restart.lmp.${pid} restart2.lmp.${pid}
restart 	1000 restart.lmp.${pid} restart2.lmp.${pid}
restart 	1000 restart.lmp.0 restart2.lmp.${pid}
restart 	1000 restart.lmp.0 restart2.lmp.0


include         in.dump
dump            myDump all atom ${out_freq2} dump.water.${pid}
dump            myDump all atom 10000 dump.water.${pid}
dump            myDump all atom 10000 dump.water.0
dump            myDump2 all dcd ${out_freq2} dump.dcd
dump            myDump2 all dcd 10000 dump.dcd
dump_modify     myDump append yes
dump_modify     myDump2 append yes


variable natoms 	equal  "count(all)"                        # NUMBER ATOMS
variable H      	equal  "enthalpy/v_natoms"                 # ENTHALPY-per-atom
variable Vol      	equal  "vol/v_natoms"                 # volume-per-atom
fix AVG all 		ave/time ${out_freq} 1 ${out_freq} v_Vol v_H file vol_enthalpy.dat
fix AVG all 		ave/time 1000 1 ${out_freq} v_Vol v_H file vol_enthalpy.dat
fix AVG all 		ave/time 1000 1 1000 v_Vol v_H file vol_enthalpy.dat


timer           timeout 02:55:00 every 1000
New timer settings: style=normal  mode=nosync  timeout=02:55:00

fix 		1 all shake 1e-6 200 0 b 1 a 1
       0 = # of size 2 clusters
       0 = # of size 3 clusters
       0 = # of size 4 clusters
     324 = # of frozen angles
  find clusters CPU = 1.369 seconds
fix             2 all nph aniso ${pressure} ${pressure} ${pressureDamp}
fix             2 all nph aniso -750 ${pressure} ${pressureDamp}
fix             2 all nph aniso -750 -750 ${pressureDamp}
fix             2 all nph aniso -750 -750 1000
fix             3 all temp/csvr ${temperature} ${temperature} ${tempDamp} ${seed}
fix             3 all temp/csvr 200.21 ${temperature} ${tempDamp} ${seed}
fix             3 all temp/csvr 200.21 200.21 ${tempDamp} ${seed}
fix             3 all temp/csvr 200.21 200.21 100 ${seed}
fix             3 all temp/csvr 200.21 200.21 100 745823


run             250000
PPPM initialization ...
  extracting TIP4P info from pair style
  using 12-bit tables for long-range coulomb (../kspace.cpp:340)
  G vector (1/distance) = 0.37114151
  grid = 24 24 25
  stencil order = 5
  estimated absolute RMS force accuracy = 0.0035650216
  estimated relative force accuracy = 1.0735957e-05
  using double precision FFTW3
  3d grid and FFT values/proc = 2366 288
Last active /omp style is kspace_style pppm/tip4p/omp
Neighbor list info ...
  update every 1 steps, delay 7 steps, check yes
  max neighbors/atom: 2000, page size: 100000
  master list distance cutoff = 10.8154
  ghost atom cutoff = 10.8154
  binsize = 5.4077, bins = 4 4 4
  1 neighbor lists, perpetual/occasional/extra = 1 0 0
  (1) pair lj/cut/tip4p/long/omp, perpetual
      attributes: half, newton on, omp
      pair build: half/bin/newton/omp
      stencil: half/bin/3d
      bin: standard
Per MPI rank memory allocation (min/avg/max) = 9.223 | 9.227 | 9.232 Mbytes
Step Temp PotEng TotEng E_pair E_mol Press Lx Ly Lz Volume Pxx Pyy Pzz Pxy Pxz Pyz Enthalpy 
19500000    203.66428   -4801.3429   -4408.5592   -4801.3429            0   -1408.7654    20.318503    20.238442     21.17397    8707.0506   -2000.0611   -1465.2367   -760.99837   -4.6522044    274.01005    171.96401    -4587.449 
19501000     203.9144   -4844.2709   -4451.0049   -4844.2709            0   -1026.8734    19.991877    20.232446    21.248773    8594.8012   -1456.4724    321.34807   -1945.4959   -608.18582   -324.78905    845.66114   -4579.7197 
19502000    201.36994   -4822.5656   -4434.2067   -4822.5656            0    262.82859    20.166161     20.15837    21.314743     8664.804   -116.56477    586.43916    318.61137   -288.44029    558.44426    -343.2452   -4400.9937 
19503000    186.22272    -4811.148   -4452.0018    -4811.148            0   -614.49906    20.250364    20.294371    20.946028    8608.1557    130.74526   -2348.8314    374.58893    173.04733    259.63077   -89.336028   -4529.1467 
19504000     196.9611   -4847.9504   -4468.0943   -4847.9504            0     -1070.79    20.084213    20.206193    21.177624     8594.419   -797.43911   -1933.6818   -481.24923   -15.168321   -694.43239    811.39832    -4602.308 
19505000    190.38147    -4807.483   -4440.3163    -4807.483            0   -1431.8558    20.149552    20.295478    21.111701    8633.5201   -280.94113   -2177.8127   -1836.8134    481.44136   -474.32605   -1048.1688   -4620.6028 
19506000    205.69969   -4828.8539   -4432.1447   -4828.8539            0    821.62284    20.217433    20.180947    21.023128    8577.5822    1010.6524    62.618034     1391.598    106.20409    757.31113    -665.5628   -4329.3636 
19507000    195.46615   -4814.4905   -4437.5176   -4814.4905            0   -701.20052    20.160302    20.103941    21.452166    8694.5956    188.14938   -971.46913   -1320.2818   -551.63162    65.553346    572.37356   -4526.4311 
19508000    191.97779   -4809.1143    -4438.869   -4809.1143            0   -511.62658    20.363135    20.228842     20.84526    8586.6346   -685.43822   -942.13908    92.697558    165.10944   -721.12128     -972.086   -4502.9386 
19509000    208.61594   -4821.3831   -4419.0497   -4821.3831            0    723.22624    20.132891    20.108201    21.319298    8630.8236   -407.89747    1687.9833    889.59288   -263.07582   -229.73013   -457.15093    -4328.016 
19510000    202.32221   -4813.0068   -4422.8114   -4813.0068            0   -1584.1565    20.145299    20.142491     21.67559    8795.4448   -911.96759   -1902.2555   -1938.2463   -145.81015    211.95052   -740.98368   -4626.0152 
19511000    193.00953   -4815.0874   -4442.8523   -4815.0874            0   -657.20021    20.284217    20.245571    20.992744    8620.9971   -893.10392    -1344.727    266.23026   -160.11798   -749.40314    -1022.023    -4525.481 
19512000    218.27151   -4828.9556   -4408.0006   -4828.9556            0   -1110.3275    20.147282    20.289286    21.299213    8706.5636   -603.36143   -794.10494   -1933.5161    443.97751    1107.9743   -503.46539   -4548.9859 
19513000    206.01783   -4806.2389   -4408.9162   -4806.2389            0    -580.5125    20.239887    20.150101    21.251242    8667.0164   -2366.5656    168.77958    456.24853   -275.15953   -740.25428   -637.96467   -4482.2927 
19514000    195.97214   -4833.6567    -4455.708   -4833.6567            0   -53.456534    20.231061    20.302942    21.080128    8658.6637    1259.1483   -943.91774   -475.60015   -522.75029   -113.25758    125.95273   -4462.4583 
19515000     198.4179   -4824.4476    -4441.782   -4824.4476            0   -1089.5178    20.131109    20.090872    21.498845    8695.2404    15.609684    -1067.428   -2216.7351    53.769968    208.22045   -1704.6954    -4579.945 
19516000    203.23428   -4833.1664    -4441.212   -4833.1664            0   -81.164911    20.234053    20.159172     20.95436    8547.3205    818.25259   -920.11626   -141.63107    -404.7171     219.2645    1389.9007   -4451.3295 
19517000    204.21088   -4834.0879     -4440.25   -4834.0879            0    406.62737    20.150545     20.21686      21.1497    8615.9808    959.16159    592.15338   -331.43286    -543.9083   -659.47869   -563.79408   -4389.1551 
19518000    187.97847   -4818.5924   -4456.0601   -4818.5924            0   -1428.1076    20.175242    20.096157    21.604766    8759.5406   -869.35193    -1162.626   -2252.3448    335.97665     571.4229    1106.0805   -4638.4993 
19519000    197.69004   -4829.8145   -4448.5527   -4829.8145            0    392.89355    20.247542    20.084749     21.22074    8629.7706   -604.79437    2308.1986   -524.72357   -200.72554    119.61488   -520.38681   -4399.1045 
19520000     191.0091   -4816.4453   -4448.0682   -4816.4453            0   -1120.6859    20.089163    20.224255     21.35121    8674.7476    879.10992   -1879.2807   -2361.8869   -619.70548     1375.824   -738.75818   -4589.8488 
19521000    196.07629   -4842.0815   -4463.9319   -4842.0815            0   -982.11069    20.342054    20.047514    21.164102    8630.8819    402.17074   -1978.6584   -1369.8444   -503.84322    218.59591    517.97581   -4587.5527 
19522000    202.68948   -4833.1371   -4442.2334   -4833.1371            0   -132.43329    20.189233    20.294513    21.082797    8638.2682   -144.65351   -1382.4227    1129.7763     60.21986    14.870577   -53.527487   -4458.9174 
19523000    199.51072   -4847.1784   -4462.4052   -4847.1784            0   -676.06575    20.055488    20.210926    21.153167    8574.2239    1580.9234   -2275.4817   -1333.6389   -325.16114    664.01572    207.69216   -4546.9447 
19524000    213.90543     -4820.03   -4407.4954     -4820.03            0    -1442.652    20.287889    20.296343    21.157125    8711.8685   -2558.4313   -232.56448   -1536.9603   -274.42729    82.208646   -76.212853   -4590.7896 
19525000    199.87146   -4803.1222   -4417.6533   -4803.1222            0   -327.57828    20.156002     20.23955    21.263908    8674.5778   -41.989285   -464.42907   -476.31648   -759.31996    415.81995    985.30109   -4459.0952 
19526000    210.11202   -4820.8905   -4415.6718   -4820.8905            0   -686.57021    20.325751    20.093552    21.254388    8680.6432   -1206.5983    754.90768     -1608.02    37.021174    287.51749   -284.90687   -4502.5904 
19527000    211.94455   -4818.7162   -4409.9633   -4818.7162            0    576.67534    20.468461    20.033999    21.121417    8661.1565   -476.89065    532.45063     1674.466    582.10511    56.726549    313.60984   -4337.1211 
19528000    197.18699   -4833.6169   -4453.3252   -4833.6169            0   -861.32446     20.15257    20.301634    21.125887     8643.236   -1227.8733   -1106.5247   -249.57532   -55.427282   -653.24784   -165.90875   -4561.8975 
19529000    195.69681   -4814.9486   -4437.5309   -4814.9486            0   -919.34039    20.311075    20.089983    21.316733     8698.275   -865.29486   -1248.5412   -644.18513   -20.545348   -111.82181    531.21271   -4554.1542 
19530000    205.20694   -4818.3221   -4422.5633   -4818.3221            0    247.53803    20.184633    20.089412    21.204635    8598.4246   -914.03419    577.49632     1079.152    98.838119    211.10885   -912.36632   -4391.5222 
19531000    202.24442   -4807.9262   -4417.8808   -4807.9262            0   -596.00295    20.328491    20.158097    21.247451    8706.8585   -2299.6047     557.1149   -45.519031   -125.21329    434.06769   -896.57821   -4493.5616 
19532000    193.28528    -4803.917   -4431.1501    -4803.917            0    303.71254    20.189684    20.149938    21.214246    8630.3984    938.22481   -420.94608     393.8589   -577.35595    957.30735    213.64984   -4392.9232 
19533000    204.96978   -4829.6497   -4434.3483   -4829.6497            0   -1606.8287    20.439706    20.266878    20.948605    8677.9392   -2207.2019   -1512.8711   -1100.4131   -701.34357   -817.29702   -411.79692   -4637.7067 
19534000    195.53526   -4831.3173   -4454.2111   -4831.3173            0   -631.37486     20.16176    20.110685    21.234269    8609.7913   -2006.6539    928.72655   -816.19728   -140.88337   -225.01911    -144.7376   -4533.4897 
19535000    195.74316    -4858.612   -4481.1049    -4858.612            0   -35.711316    20.129978     20.07315    21.323247    8616.1284   -377.01965    201.57032    68.315377    534.35936   -263.70059    431.89446   -4485.5923 
19536000    189.13878    -4828.448    -4463.678    -4828.448            0   -236.03279    20.181892     20.30939    21.058729    8631.5921   -1381.8312    388.53394    285.19887   -589.87389   -681.98373    410.77156   -4493.3905 
19537000    197.23901   -4828.9654   -4448.5733   -4828.9654            0   -1247.9058    20.279397    20.202126    20.953622    8584.4249   -1117.1689   -1412.7713   -1213.7772   -127.35852    596.81646   -1364.8487   -4604.8049 
19538000    205.65519   -4823.9567   -4427.3333   -4823.9567            0   -1220.0499    20.177758    20.290536    21.453483    8783.4318   -1130.4801   -1051.7229   -1477.9468   -545.19949    1970.6215    107.98463   -4583.6185 
19539000    198.20251   -4839.3543   -4457.1041   -4839.3543            0    1731.9714    20.115305    19.983402     21.36665    8588.7996     1041.889    3360.9796    793.04574   -151.76061   -963.36332    345.58603   -4240.1593 
19540000     199.1205   -4824.6044   -4440.5838   -4824.6044            0    -1257.382    20.350837    20.331183    20.972571    8677.5399   -1455.1131   -1479.2917   -837.74128   -191.16393    71.625333   -254.36711   -4599.7093 
19541000    199.99609   -4818.6233    -4432.914   -4818.6233            0     -361.887    20.290388    20.099579    21.288419    8682.0186    -2257.118    1961.1981   -789.74114   -28.799094   -344.62668   -2263.0743   -4478.7355 
19542000    206.45845   -4847.7257   -4449.5532   -4847.7257            0    -858.1112    20.081871     20.07894    21.503889     8670.856   -1192.0225    1094.4834   -2476.7944   -109.45709    335.90971   -595.36209   -4558.0661 
19543000    205.98668   -4822.1786    -4424.916   -4822.1786            0    531.05945     20.13893    20.333402    21.046446    8618.3717    907.54308   -325.72294    1011.3582   -245.23622    70.889142   -1153.9787   -4358.1671 
19544000    187.10975   -4830.4852   -4469.6284   -4830.4852            0   -543.35163    20.090798    20.368376    21.107013    8637.3472    967.55357   -2005.5266   -592.08184   -787.17792   -1235.7942   -415.34735   -4538.0727 
19545000    199.54166   -4856.4698   -4471.6369   -4856.4698            0    17.148534    20.230384    20.059879    21.158148    8586.3791   -61.179359   -286.62265    399.24761   -44.506151     967.5281    116.24664   -4469.4895 
19546000    193.46078   -4826.3844    -4453.279   -4826.3844            0   -690.26459    20.194048    20.166728    21.462638    8740.6135   -1564.5268   -372.80681   -133.46016   -146.55488    737.95738    639.15139    -4541.269 
19547000    205.66701   -4847.6025   -4450.9563   -4847.6025            0    586.18623     20.21678    20.020998    21.139586    8556.4611    687.39035    269.92901    801.23933    -172.4852    181.32114   -831.08903   -4377.8078 
19548000    190.58788   -4826.5288    -4458.964   -4826.5288            0   -1168.5094     20.04762    20.394096     21.37183    8737.9389    1148.8549   -2153.9623   -2500.4209   -212.02841    109.76383   -993.60114   -4607.8717 
19549000    201.02589   -4821.1921   -4433.4967   -4821.1921            0   -860.54288    20.065976    20.302654     21.15715    8619.2658   -1006.3453   -1456.9558    -118.3275    273.56956    475.52046   -495.19664   -4541.6697 
19550000    202.76998   -4852.2235   -4461.1646   -4852.2235            0    246.76999    20.233966    20.252522    20.963581    8590.6416   -719.77858   -48.435834    1508.5244   -675.19539    923.29642   -585.67151   -4430.2478 
19551000    207.38826   -4787.6726   -4387.7069   -4787.6726            0   -1653.4152     20.20504    20.267738    21.286656    8717.1088   -711.11163   -2239.7696   -2009.3645   -72.689133    685.10076   -771.70442   -4597.9058 
19552000    197.67896   -4842.4318   -4461.1913   -4842.4318            0       -539.6    20.121052    20.246449    21.265528    8663.1476   -940.07825   -557.23315   -121.48861   -692.25334    636.46157    726.49544   -4529.3661 
19553000    188.39985   -4833.3944   -4470.0494   -4833.3944            0   -355.80537    20.229869    20.361971    21.043639    8668.2959    44.289696    -1291.081    179.37525     70.40685   -641.30629    997.91016   -4515.0297 
19554000    203.51764    -4812.104   -4419.6031    -4812.104            0   -670.14371    20.163728    20.189163    21.294829    8668.8863    224.65588   -1620.5595   -614.52749   -851.22803    556.86101   -62.941946   -4504.3272 
19555000    202.00146   -4827.3464   -4437.7696   -4827.3464            0    -1094.416    20.169712    20.217174    21.276254    8675.9156   -829.11029   -781.38658   -1672.7511   -159.68845   -16.365674   -477.60883   -4576.2453 
19556000     204.9364   -4802.5049   -4407.2678   -4802.5049            0    249.50103    20.307506    20.295556    21.072905    8685.2426    978.11828   -745.98108    516.36589   -693.91927    786.36381   -386.17559   -4375.6647 
19557000    197.77679   -4843.8446   -4462.4155   -4843.8446            0   -2443.7004    20.226756    20.200346    21.496552    8783.2218   -2120.5287   -2042.2572   -3168.3154   -584.66723     502.3842   -120.92678   -4775.4395 
19558000    205.27821   -4840.1047   -4444.2084   -4840.1047            0    -1342.205    20.331563    20.082794    21.206607    8658.9671   -1136.3252   -1196.3065   -1693.9831    -644.6055   -844.82728    212.10878   -4613.7049 
19559000    193.20566   -4819.6481   -4447.0348   -4819.6481            0   -1153.4939    20.184765    20.245809    21.246066    8682.3514   -253.09534   -1274.3465   -1933.0399   -172.61821    421.49951   -683.35063   -4593.0939 
19560000    202.69091   -4835.1203   -4444.2138   -4835.1203            0   -774.65706    20.307055    20.257637    20.948841     8617.786    -686.1126   -1589.4349   -48.423665     131.1065   -861.96018    -18.54354   -4541.5739 
19561000    197.74339   -4815.0635   -4433.6988   -4815.0635            0   -1503.7412    20.270893    20.145106    21.244294    8675.3047   -1313.6064   -1987.6548   -1209.9623   -34.479731     422.5145   -383.14148   -4623.9528 
19562000    204.87798   -4799.0622   -4403.9378   -4799.0622            0   -1428.0041    20.135467    20.081471    21.630955    8746.4726    368.51284   -3012.3274   -1640.1978   -430.60993    265.00454   -1082.2261   -4586.0916 
19563000    210.00994    -4827.388   -4422.3662    -4827.388            0     -2051.69    20.274296    20.266883    21.196609    8709.6186   -2875.8046   -1864.1077   -1415.1576   -59.685839   -651.09816   -127.50462   -4682.9736 
19564000     211.1989   -4849.0863   -4441.7715   -4849.0863            0   -1282.6395    20.303664    19.976724    21.451612    8700.7889   -1580.1381    150.85926   -2418.6397    478.32055   -252.76789   -195.24132   -4604.5283 
19565000    214.73009   -4860.4107   -4446.2857   -4860.4107            0   -1457.9607    20.223601    20.278993    21.108914    8657.0669   -1012.2834   -1489.6538   -1871.9448    506.97617    44.299922    415.14846   -4630.3597 
19566000    206.52429   -4807.1269   -4408.8274   -4807.1269            0    587.42765    20.156778    20.207056    21.147336    8613.5032     240.1889    972.11875    549.97529   -630.09691    277.21598    294.75054   -4335.0353 
19567000    206.94004   -4848.1917   -4449.0905   -4848.1917            0   -758.61959    20.270827    20.246396      21.0969    8658.4037   -127.48229   -1392.5839   -755.79257    153.12586    235.54356   -1222.2036   -4544.8843 
19568000    200.62023   -4831.7899   -4444.8769   -4831.7899            0   -757.42934     20.21006    20.184816    21.225276    8658.5613   -26.598283   -1797.5407   -448.14901    555.44053   -507.68821   -764.49023   -4540.5223 
19569000    179.96244   -4818.6622   -4471.5895   -4818.6622            0   -1121.9683    20.171592     20.12093    21.323189    8654.4679   -1649.5903    606.48606   -2322.8007   -373.85938   -65.991539   -912.90485   -4613.2005 
19570000    192.25392    -4805.153   -4434.3751    -4805.153            0   -595.37058    20.475167    20.102643    20.972236    8632.2767   -1315.8719   -1180.9034    710.66361    -178.0114   -802.99943       405.43    -4509.328 
19571000    204.83386   -4830.7069   -4435.6676   -4830.7069            0   -1154.8889    20.277854    20.121724    21.336413    8705.7981   -1471.6688   -360.14297   -1632.8551    322.72495   -783.17778   -832.06867   -4582.2982 
19572000    210.96394   -4798.7615   -4391.8998   -4798.7615            0   -1742.6245    20.290871    20.113302    21.382835    8726.6861   -1297.4349   -1765.9109   -2164.5278   -398.33809   -313.06537   -591.37335   -4613.6833 
19573000    193.89475    -4847.231   -4473.2887    -4847.231            0   -1288.7211    20.359842    20.259221    21.134445    8717.4205   -1907.8987   -1322.1352   -636.12937   -296.55051   -527.58226   -678.44232   -4637.1298 
19574000    197.34853   -4844.0663    -4463.463   -4844.0663            0   -1158.6901    20.119764    20.236026     21.18273    8624.4226   -1665.1013   -156.29941   -1654.6696    56.830753    819.74067    153.60515   -4609.2011 
19575000    192.46007   -4823.3096   -4452.1342   -4823.3096            0   -941.81207    20.179922    20.248325    21.376178    8734.5118   -360.69049   -824.14799   -1640.5977    166.86979    663.92382    968.67473   -4572.1059 
19576000    203.22883   -4838.0349    -4446.091   -4838.0349            0   -1690.0819    20.322705    20.326428    21.013718    8680.5145   -1334.3896    -3093.676   -642.18009    150.32418   -80.167259    216.62124   -4660.0493 
19577000    185.17785   -4833.7388   -4476.6078   -4833.7388            0   -1658.3243    20.364616     19.98894      21.3855    8705.3335   -879.28876   -1866.4441     -2229.24    258.83777    65.412496   -738.40435   -4687.1459 
19578000     205.3781   -4805.9806   -4409.8917   -4805.9806            0   -1877.9494     20.38649    20.229572    21.257395    8766.7618   -3508.1554   -331.70896   -1793.9839   -221.51018    59.390258     653.6819   -4649.9955 
19579000    199.93577   -4851.0073   -4465.4144   -4851.0073            0   -275.98024    20.272569    20.040098    21.247192    8631.9749   -350.68372   -525.27021     48.01321    395.51519    187.40966    -113.9283   -4500.1571 
19580000    202.82404   -4806.7391   -4415.5759   -4806.7391            0   -591.65946    20.345449    20.023101    21.548003    8778.2039     115.9457   -356.58396   -1534.3401   -102.82046    15.156392    298.43946   -4491.3208 
19581000    204.57668   -4828.8158   -4434.2725   -4828.8158            0   -1085.0812    20.322993    20.130545    21.295799    8712.3865   -7.3250906   -1627.3847   -1620.5337    266.27604    366.55795   -1293.1892   -4572.1442 
19582000     200.0922   -4846.3353   -4460.4406   -4846.3353            0   -778.31688    20.270006    20.303141    21.014337    8648.3411   -670.96724   -846.27283   -817.71056   -600.65014      332.373   -1415.9838   -4558.6075 
19583000    194.25233   -4803.1224   -4428.4904   -4803.1224            0   -1387.1202    20.265593    20.251641    21.268232    8728.7273   -3023.6976    -330.0078   -807.65511    -891.3914    644.74494   -915.58474   -4605.0702 
19584000    198.49196   -4790.0855    -4407.277   -4790.0855            0   -1036.9047    20.298665    19.924407    21.540178    8711.6852   -1359.1356    187.84509   -1939.4235      91.4137   -427.92396   -232.12321   -4539.0168 
19585000    188.28989   -4822.4703   -4459.3374   -4822.4703            0   -1355.1227     20.28754    20.253514    21.096133    8668.2736   -1864.5139   -726.84237    -1474.012   -430.44192    669.57773     53.68277   -4630.6491 
19586000    195.47965   -4829.9674   -4452.9685   -4829.9674            0     -1423.33    20.351051    20.239782    21.106847    8693.9279   -2408.0471   -171.45638   -1690.4866   -664.80057    136.69967    19.440163   -4633.4354 
19587000    203.44404   -4846.5349    -4454.176   -4846.5349            0   -1485.6777    20.269572    19.948888    21.435291     8667.476   -2675.4575   -196.22988   -1585.3457    45.284967    303.01158    57.523843    -4641.975 
19588000    207.47805   -4841.8481   -4441.7092   -4841.8481            0   -476.08217    20.309397    20.086078    21.258514    8672.1163   -1513.4632    434.48585    -349.2691    203.95562    422.66916    552.25531   -4501.9212 
19589000      197.578   -4862.1061   -4481.0603   -4862.1061            0   -536.84127    20.100369    20.329632    21.041082    8598.0829   -691.53728   -888.14696   -30.839569    426.41826    136.41815    1084.3889   -4548.3771 
19590000    197.27144   -4829.3745     -4448.92   -4829.3745            0   -1123.3427    20.197172    20.129295    21.270666    8647.6923   -677.21274   -2123.7697   -569.04557   -29.559591     729.7955    1238.9224   -4590.5934 
19591000    192.63776   -4824.8485   -4453.3304   -4824.8485            0   -1390.2469    20.448007    20.204865    21.130995    8730.2543   -29.448455   -2490.3955   -1650.8966   -407.11606    269.24766   -583.29613   -4630.3391 
19592000    201.85088   -4840.9969   -4451.7105   -4840.9969            0   -550.95093    20.080568    20.074241    21.476478    8657.2148    2018.2588   -2478.9671   -1192.1445    755.47626    1588.6411   -437.78991   -4521.2717 
19593000     210.4217   -4831.3615   -4425.5455   -4831.3615            0   -1168.5321    20.341991    20.076724    21.186117    8652.4216   -1598.3158   -546.86123   -1360.4192    377.00821   -1074.9809     5.941275   -4572.9987 
19594000    193.40311   -4819.4035   -4446.4093   -4819.4035            0     1723.216    20.208791    20.011414    21.313047    8619.1342    1666.8439    3477.7321    25.071952     331.2373     203.3807   -802.05023   -4229.7989 
19595000    185.41202    -4834.304   -4476.7213    -4834.304            0   -86.201163    20.252613    20.097219    21.261249    8653.7792   -1008.3983     734.7508    15.043988    183.83476   -1069.6394    691.30859   -4487.6005 
19596000    208.31225   -4842.5017    -4440.754   -4842.5017            0    637.45172    20.391099    20.031831    21.012618    8583.0462   -738.56771    1247.7904    1403.1325    133.61169   -162.12271   -506.34967    -4360.961 
19597000    200.39202   -4833.3747   -4446.9018   -4833.3747            0   -873.14502    20.138707    20.098537    21.221026    8589.3915    774.63172   -1183.2662   -2210.8005    198.34872   -16.984633   -616.86972   -4556.2785 
19598000    198.66203   -4825.0356   -4441.8991   -4825.0356            0     -838.603    20.355513    20.175173     21.33779    8762.9177   -666.61676   -1196.0926   -653.09966   -468.00083    492.51438    -1419.783   -4549.0711 
19599000    200.98706   -4837.7671   -4450.1467   -4837.7671            0   -373.81581     20.28118     20.13119    21.071523    8603.1719   -273.87164   -155.50031   -692.07546   -48.711773   -417.45702    82.930361   -4497.0487 
19600000    203.21862   -4836.2384   -4444.3142   -4836.2384            0   -1484.8706    20.235386    20.332538    21.200488    8722.6598   -1825.8794   -1993.2761   -635.45615   -88.853182    477.93425    295.84555   -4633.2061 
19601000    193.52168   -4851.1255   -4477.9027   -4851.1255            0   -2331.6845    20.153934    20.102203    21.353054    8650.9436   -2794.9492    -1953.963   -2246.1413    43.427031    412.15053    616.21181     -4772.08 
19602000    190.24449   -4803.4962   -4436.5937   -4803.4962            0   -1070.6242    20.341752    20.225168    21.021455    8648.5492   -1443.8362   -789.31786   -978.71858    7.7510809   -464.67407   -215.97626   -4571.6317 
19603000    196.80613   -4810.7276   -4431.1705   -4810.7276            0   -404.83304    20.296988    20.082531    21.216701    8648.2432   -62.397144   -113.74728   -1038.3547    213.37078   -34.955265   -854.43855   -4482.2303 
19604000    204.00681   -4820.7341   -4427.2898   -4820.7341            0   -1734.1213    20.325447    20.209559    21.202919    8709.4875   -1480.4603   -3365.8525    -356.0512    91.211394    36.518822    868.11992    -4647.556 
19605000    214.04977   -4814.7015   -4401.8885   -4814.7015            0   -2841.2745    20.342807    20.309385     21.30013    8800.1466   -3836.8752   -2912.4549   -1774.4933    252.85303   -1347.7898   -1001.6261   -4766.5408 
19606000     206.8279   -4863.7969   -4464.9119   -4863.7969            0    488.91479    20.022745    20.250377    21.023941    8524.5382   -127.90381    1121.5701    473.07812   -340.49431   -979.08454   -44.189564   -4404.1292 
19607000    201.26637    -4829.594   -4441.4349    -4829.594            0   -1397.5479    20.212852     20.20112    21.143647    8633.4213   -1492.4693   -1991.1575   -709.01709    194.74861   -283.69842     234.5928   -4617.3996 
19608000    203.18665   -4818.7356   -4426.8731   -4818.7356            0   -404.86431    20.274376    20.184415    21.265324    8702.3325   -909.25965    1055.1195   -1360.4528   -40.549632    103.58311   -861.40019   -4478.2562 
19609000    196.41801   -4823.9881   -4445.1795   -4823.9881            0    -1160.318    20.123774    20.110389    21.332774    8633.3079   -1847.0797   -426.86381   -1207.0105   -131.87807   -120.37637   -591.71394   -4591.2727 
19610000    206.21525   -4822.5542   -4424.8507   -4822.5542            0    242.11538    20.224472    20.361137    20.979175    8639.0825    588.41694   -669.26285    807.19206    -419.3254       13.425   -226.41059   -4394.3461 
19611000    205.34267   -4815.8396    -4419.819   -4815.8396            0   -24.183079    20.156833    20.213778     21.18272    8630.8091    4.4447766    343.14508   -420.13909    375.85713   -143.15766    1418.4771   -4422.8629 
19612000    198.78591   -4813.6999   -4430.3246   -4813.6999            0     -1395.82    20.208474    20.172531    21.408211    8727.1873   -2577.3079    120.42734   -1730.5796   -187.54788    108.50948    483.12375   -4607.9805 
19613000    197.20419   -4849.5127   -4469.1878   -4849.5127            0   -81.160092    20.150624    20.165723    21.079768    8565.8036    577.36538   -103.99869   -716.84696    477.24406   -309.33688   -1028.7911   -4479.3266 
19614000    204.67902   -4826.5644   -4431.8237   -4826.5644            0   -1637.0999    20.277528    20.317779    21.147183    8712.5193   -1840.4298   -2125.2205   -945.64935    158.93291    608.65338    480.89432   -4639.8388 
19615000    195.92204    -4815.244   -4437.3919    -4815.244            0   -1660.1634    20.250818    20.207222    21.367611    8743.8993   -2223.4069   -617.91646    -2139.167   -650.48506   -638.10358    842.21515   -4649.0973 
19616000     195.6783    -4843.887   -4466.5049    -4843.887            0   -36.931065    20.250631    20.032303    21.287118    8635.4764    -743.1931     1166.774   -534.37407   -510.02541    652.48297     326.0512    -4471.156 
19617000    194.50848   -4843.6313   -4468.5054   -4843.6313            0   -1397.1423    20.244117    20.340355    21.028749    8659.0611   -1151.5371   -1905.6507    -1134.239    171.37364    286.78819    -394.5727   -4644.9414 
19618000    189.88644   -4820.6412   -4454.4293   -4820.6412            0   -1769.4157    20.302344    20.135949    21.146969    8645.0281   -3320.2815   -357.16034   -1630.8052    355.33612    771.40584   -116.43214   -4677.5152 
19619000    188.18392   -4824.4554   -4461.5269   -4824.4554            0   -2031.9584    20.269309    20.151199    21.401248    8741.3589   -1313.0004   -2175.1196   -2607.7553   -220.23292   -1357.6151    61.401309   -4720.5686 
19620000    193.52549    -4814.749   -4441.5188    -4814.749            0    168.35421    20.422292    20.074946    21.083669    8643.8069   -1062.6653    1095.7131    472.01488   -316.17096    403.54835   -236.47739   -4420.2959 
19621000    189.68246   -4833.2505   -4467.4319   -4833.2505            0   -296.90673     20.27111    20.273345    20.946759    8608.3472   -720.25241   -1391.4251    1220.9574   -204.95995    682.38177   -253.45111   -4504.7068 
19622000    199.96911   -4810.5544   -4424.8971   -4810.5544            0   -1251.4575    20.221812    20.176751    21.407605     8734.527    -1778.735   -662.08376   -1313.5536   -380.20806    1554.2923   -1833.8425   -4584.3129 
19623000     199.6045   -4824.3575   -4439.4034   -4824.3575            0    135.50335    20.231369    20.063518    21.317126    8652.8863    1369.1222    -273.8108   -688.80131   -427.30981   -744.60363    671.22053   -4422.3038 
19624000     200.0602   -4825.6882   -4439.8553   -4825.6882            0   -1338.3097    20.350109    20.336611    20.820106    8616.4476    -2487.618   -1057.1522   -470.15888    248.42711    648.00477   -38.350186     -4608.03 
19625000    202.32145   -4814.9113   -4424.7174   -4814.9113            0   -267.98895      20.1165    20.114252    21.355553    8641.0623   -903.91095    664.46702   -564.52291   -653.84089    730.10593    159.23753   -4458.4896 
19626000    184.78066   -4821.7402   -4465.3751   -4821.7402            0   -1369.7443    20.354807    20.109485    21.308242    8721.9891   -1165.8758   -1737.5312    -1205.826   -7.7776028   -299.44813   -116.19334   -4639.6083 
19627000    205.96029    -4850.221   -4453.0093    -4850.221            0    -677.9242    20.169266     20.24463    21.025266    8585.0221    -377.3653    -2115.261    458.85369    250.44708    46.269939    688.20823   -4537.8879 
19628000    208.63632   -4858.6608   -4456.2882   -4858.6608            0   -37.389738    20.164817    20.021293     21.28237    8592.2401   -363.71273     475.0135   -223.46999   -454.05686    -370.1483    719.87111   -4460.9734 
19629000    206.56256   -4803.9383    -4405.565   -4803.9383            0   -605.49531    20.396176    20.059957    21.321147     8723.471   -853.81763   -132.87636   -829.79196    177.97959   -33.074182   -437.98435   -4482.5979 
19630000    195.80459   -4853.2054   -4475.5797   -4853.2054            0   -347.18619    20.292588    20.075878     21.10284    8597.1176   -1151.5592    114.27801     -4.27744   -109.40785   -269.23104   -38.010557     -4519.11 
19631000    190.40217   -4841.5666     -4474.36   -4841.5666            0   -873.48413     20.21965    20.209641    21.337627    8719.2344   -2306.9863    102.82325    -416.2893    -223.8307    1540.8591     402.4493   -4585.4332 
19632000    199.07381   -4804.6254   -4420.6948   -4804.6254            0    82.738751    20.397371    20.109706    21.066569    8641.1935   -1627.0507    1067.6987    807.56828    106.08344   -153.14937    450.23902   -4410.2678 
19633000    204.88595   -4813.6922   -4418.5524   -4813.6922            0   -127.02497    20.137014    20.174658     21.15416    8594.0333   -1590.6845    217.30114    992.30842   -360.58345    477.27377    420.47447   -4434.4731 
19634000    201.36077   -4848.6389   -4460.2977   -4848.6389            0   -524.90648    20.237041    20.066921    21.441104    8707.1275   -1005.4468    339.77015   -909.04276   -186.32002    1217.7297   -77.718841   -4526.9527 
19635000     193.8756   -4825.7432   -4451.8378   -4825.7432            0    274.21394    20.257573    20.027409    21.153143    8581.9719     1087.223    264.95713   -529.53827   -420.74597   -1302.0106   -441.09821   -4417.5174 
19636000     200.0179   -4822.1675   -4436.4162   -4822.1675            0   -389.12654    20.171288    20.362249    21.130335    8678.9214     31.39634    -903.7238   -295.05216   -96.091129    957.00009   -429.29252   -4485.6692 
19637000    197.81174   -4845.6485   -4464.1519   -4845.6485            0   -249.60122    20.251471    20.045626    21.111352    8570.2253   -546.71817    946.50186   -1148.5874   -288.57938   -1024.6183   -228.95278   -4495.3491 
19638000    202.57223   -4846.4889   -4455.8114   -4846.4889            0   -779.74472    20.260892    20.188062    21.108946    8634.1529   -1471.4113   -931.34423    63.521414   -25.433503   -274.43247    332.41807    -4553.997 
19639000    193.36163   -4853.2657   -4480.3515   -4853.2657            0   -112.80713    20.132123    20.217429    21.297804    8668.6273    1793.1638   -1290.2557   -841.32952    49.713759    61.245076    1067.0391   -4494.6129 
19640000    202.35673   -4821.3667   -4431.1047   -4821.3667            0    492.73934    20.238811    20.220955    20.883718    8546.6217   -34.009751   -60.760192     1572.988    394.68582    217.36257   -75.271846   -4369.6879 
19641000    195.03878   -4826.7958   -4450.6471   -4826.7958            0    -1875.304     20.25293    20.162121    21.426794    8749.4601   -1514.8093   -2068.0672   -2043.0356    214.21564    941.19312   -400.49924   -4689.9394 
19642000    199.14735   -4833.9305   -4449.8581   -4833.9305            0    320.07944     20.08041    20.167734    21.402619     8667.555     770.6729     334.1385   -144.57309    220.38625    557.53702    1427.3606   -4409.3977 
19643000    204.51506   -4848.7187   -4454.2942   -4848.7187            0   -510.20873    20.297374    20.106473    21.146158    8629.9289   -1495.9496    21.700485   -56.377087   -201.80988   -621.21749   -63.098845   -4518.5084 
19644000    204.32508    -4835.329   -4441.2709    -4835.329            0    620.33686    20.262723    20.127467    21.153515    8627.1921    2376.5945   -977.14505    461.56111   -593.55808   -849.10232   -1101.9314   -4363.2209 
19645000    205.43513   -4841.3839    -4445.185   -4841.3839            0   -1303.1416    20.086355    20.036288     21.47212    8641.5836   -1267.0945   -121.89436   -2520.4359    73.104496    164.53008   -1358.2511   -4609.4181 
19646000    197.80467   -4841.7627   -4460.2798   -4841.7627            0   -632.73823    20.257675    20.147098    21.229883    8664.6239   -2098.2627    1020.4259   -820.37792    -52.76959   -54.523709    710.36446   -4540.2355 
19647000     190.1278   -4835.1152   -4468.4377   -4835.1152            0   -946.95894    20.321412    20.275857    20.936261    8626.4522    977.22268   -2589.4515    -1228.648     -267.537     658.1475   -676.89088   -4587.5727 
19648000    194.46626    -4835.806   -4460.7615    -4835.806            0   -442.45297    20.253333    20.154374    21.246185    8672.5493   -1392.8747    932.18852   -866.67274    182.98473    354.25196    578.34869   -4516.7231 
19649000    200.34152   -4804.7756   -4418.4001   -4804.7756            0   -709.83207    20.192527    20.093799    21.545704    8742.0526    369.64084   -1020.4367   -1478.7003    718.75859    1775.3917   -622.81919   -4508.8994 
19650000    195.37799   -4827.3898   -4450.5869   -4827.3898            0   -495.68357    20.322839    20.305014    20.961192    8649.7521   -27.666705   -1680.9808     221.5968   -183.88339   -383.53968    524.59167   -4513.1163 
19651000    206.18184   -4812.0905   -4414.4515   -4812.0905            0    272.82012    20.157003    20.201409    21.264846    8659.0427    184.59827    130.00119     503.8609   -205.88177    -53.80267    942.62793   -4379.9989 
19652000    199.93742   -4817.2447   -4431.6486   -4817.2447            0    -1329.617    20.270889    20.166586    21.314474    8713.2422   -2169.8902   -1252.6261   -566.33473     88.18503     406.1437   -574.87494   -4600.6079 
19653000    198.44181   -4831.3069   -4448.5952   -4831.3069            0    -42.64371    19.980988    20.276321    21.071778    8537.0397    759.55259   -420.73613    -466.7476   -104.86349   -27.605154    210.88321   -4453.9045 
19654000    203.79522   -4835.9792    -4442.943   -4835.9792            0   -1970.8401    20.289036    20.323797    21.285868    8777.2329   -1924.0762   -1247.7505   -2740.6937    256.78166   -476.89808    566.59789   -4695.2242 
19655000    195.48098   -4822.8569   -4445.8554   -4822.8569            0     266.7951    20.079629    20.182848    21.284197    8625.7208    858.71983    877.98281   -936.31733   -325.19979   -826.06649    -414.2065   -4412.2933 
19656000    197.36475     -4837.39   -4456.7555     -4837.39            0   -2034.2568    20.188396    20.380301    21.236164    8737.5258   -1785.9367   -2438.6533   -1878.1802    376.80025   -578.18597   -323.37589   -4715.9764 
19657000    203.21995   -4837.7622   -4445.8354   -4837.7622            0   -1369.5611    20.292837    20.128282    21.190449    8655.4497    -1886.904   -837.02446   -1384.7548    222.50273    777.83185    715.76645   -4618.7163 
19658000    192.23073   -4842.2047   -4471.4716   -4842.2047            0   -1083.5438    20.184455    20.096024    21.486831    8715.6454     -774.784   -1202.8958   -1272.9516   -508.98364   -125.14717   -438.21847   -4609.1995 
19659000    201.75034   -4855.4894   -4466.3969   -4855.4894            0   -745.20119    20.122785    20.315293    21.135208    8640.0786    -1303.427   -140.16564   -792.01092   -247.24524    -824.5175    175.58885   -4560.2972 
19660000    201.44379   -4829.7049   -4441.2036   -4829.7049            0    -2476.724    20.153348    20.267599    21.341193    8717.0229   -3745.1058   -930.46943   -2754.5969   -79.147091   -1529.4783    383.59462   -4756.0667 
19661000    197.05349   -4836.8388   -4456.8045   -4836.8388            0   -1780.6023    20.250801    20.213136     21.19454    8675.6076   -416.25991   -2948.8394   -1976.7076    387.22927   -1007.5296    1192.2802    -4682.095 
19662000    193.05957   -4814.2611   -4441.9295   -4814.2611            0   -1401.5021    20.303782     20.26192    21.161103    8705.5425    -2682.024   -487.15335    -1035.329    142.31223   -282.87608   -102.88313   -4619.8661 
19663000    198.82946    -4820.285   -4436.8256    -4820.285            0   -1257.7734    20.285356    20.263897    21.015634     8638.694   -646.23589   -2412.1716   -714.91265   -556.59986   -99.383335   -123.27604   -4595.2881 
19664000    185.12029   -4809.1357   -4452.1156   -4809.1357            0   -1432.0894    20.227005    20.121913     21.39771    8708.9971   -1681.0142   -1293.5237   -1321.7305   -106.92756    573.30944    1060.3585   -4634.0079 
19665000    194.38321   -4821.6773    -4446.793   -4821.6773            0   -926.11609    20.208014    20.392884    21.252558    8758.1726   -2483.7644   -196.92547   -97.658371   -403.17101    907.24704    893.54023   -4565.0848 
19666000    194.22056   -4805.9769   -4431.4062   -4805.9769            0   -1143.2869    20.118316    20.231704    21.226545     8639.794   -344.86456   -1147.9617   -1937.0344   -624.76697    455.28413   -1051.8121   -4575.4632 
19667000    201.45495   -4829.6607   -4441.1379   -4829.6607            0    144.70336    20.269243    20.030009    21.252215    8628.2529    350.28335     511.0023   -427.17558   -482.75725    157.15624    696.42076   -4422.9293 
19668000    206.07346   -4816.5661   -4419.1361   -4816.5661            0   -497.29411    20.321741    20.015195    21.256953    8646.1299   -1443.2041     362.8877   -411.56596   -391.15863    -655.2847     604.7064   -4481.8424 
19669000    209.44837   -4822.0155   -4418.0767   -4822.0155            0   -579.46823    20.327909    20.005212    21.356462     8684.907   -272.08574   -16.898287   -1449.4207   -311.90792   -221.41739    20.118755   -4491.4725 
19670000    197.55231   -4813.4481   -4432.4518   -4813.4481            0    499.90581    20.294361    20.132718    21.223739    8671.6089    421.66048    2497.4701   -1419.4131    4.0034762    446.49612    -1293.411   -4369.2305 
19671000    196.98943   -4807.6594   -4427.7487   -4807.6594            0   -1248.7306    20.199962    20.239218     21.26555    8694.0253   -1696.8313   -1197.2731   -852.08736   -251.78965    599.85513   -933.50326   -4586.0795 
19672000    194.12191   -4829.6542   -4455.2738   -4829.6542            0   -1063.8888    20.160808     20.39054    20.960576    8616.6782   -493.27045   -2273.8516   -424.54431   -160.98347   -1023.4644    818.89593   -4588.9678 
19673000    189.00394   -4832.9252   -4468.4152   -4832.9252            0   -1235.1668     20.07856    20.176582    21.285547    8623.1309   -335.14275   -1665.7564   -1704.6012   -171.70261    1133.3245    582.60346   -4623.7492 
19674000    198.96347   -4824.6173   -4440.8996   -4824.6173            0   -553.91906    20.270995    20.194958    21.237946    8694.2179   -658.07216   -1917.7045    914.01944   -640.02785    1303.5986    498.07468   -4511.1344 
19675000    205.78213   -4848.9521   -4452.0839   -4848.9521            0   -419.43826    20.337448    20.106653    21.021177    8595.9378   -640.28429   -78.208202    -539.8223   -654.84482    357.87006     49.08248   -4504.6659 
19676000     195.2591    -4841.355   -4464.7814    -4841.355            0     44.00593    20.171538    20.236653    21.208825    8657.5359    842.31121    -1746.902    1036.6085   -696.40164    989.78458    301.75028   -4459.2252 
19677000    194.38625   -4820.9217   -4446.0315   -4820.9217            0   -1109.0904    20.177301    20.138521     21.24157    8631.3207   -857.21633   -1247.5201   -1222.5348   -74.415308     1214.495     628.8418   -4585.6426 
19678000    192.57405   -4815.0213    -4443.626   -4815.0213            0   -347.38586    20.172338    20.329477    21.247193    8713.3273   -611.08639   -631.81197    200.74079    612.13009    1231.9058   -122.10087     -4487.77 
19679000    202.12677   -4805.5103   -4415.6918   -4805.5103            0   -1808.4232    20.183771    20.239729    21.403815    8743.7595   -516.78705   -3059.8442   -1848.6383    785.94608   -542.59733   -117.38743   -4646.2997 
19680000    206.68423    -4833.335   -4434.7271    -4833.335            0   -455.83169    20.088388    20.299508    21.030006    8575.7083   -1621.3861   -238.38945    492.28045    359.77488   -650.44142     959.2993    -4491.737 
19681000    198.96116   -4838.5787   -4454.8653   -4838.5787            0   -1074.1125    20.218732    20.285081    21.111269    8658.5466   -393.69762   -2066.1236   -762.51628   -259.03698   -467.09298   -402.28033      -4590.5 
19682000    193.97513   -4821.6353   -4447.5379   -4821.6353            0   -626.75517    20.385691     20.00423    21.324842    8696.2717   -1404.4791    61.686076   -537.47245   -544.61919     766.3743   -452.50675   -4527.0269 
19683000    201.78861   -4858.1882   -4469.0219   -4858.1882            0   -1530.0038    20.175794    20.337673    21.029836    8629.1451   -2342.3348    -1716.979    -530.6977   -208.45459    1155.1028   -1156.0315   -4661.5686 
19684000    189.26474   -4828.3583   -4463.3454   -4828.3583            0   -891.14752    20.289626    20.209287    21.118619    8659.4548   -201.36467   -1901.6251   -570.45278    234.86703    362.03844    496.63288   -4575.8877 
19685000    210.05386   -4825.1396   -4420.0331   -4825.1396            0   -394.85238    20.126056      20.1076    21.322806    8629.0552    209.22719   -428.97677   -964.80756    171.91475    219.69236    375.18046   -4469.7237 
19686000    202.07599   -4812.3072   -4422.5866   -4812.3072            0   -1968.6932    20.197495    20.329173    21.177188    8695.3189   -1241.9174   -3313.1746   -1350.9878    26.789438    -156.9523    433.35201   -4672.2412 
19687000    202.53908   -4845.4256   -4454.8119   -4845.4256            0   -472.94834    20.362708    20.056572    21.030997    8589.1884   -1158.7123   -123.66156   -136.47112   -504.15694    406.83523   -215.96725   -4514.0555 
19688000    205.72388   -4830.5838    -4433.828   -4830.5838            0   -1251.5628    20.168165    20.055751     21.40713     8658.921   -2533.2992   -91.450925   -1129.9381   -641.40782    37.604785    465.33407   -4591.8772 
19689000    195.59543    -4844.596   -4467.3737    -4844.596            0   -1833.6702    20.334233    20.172597    21.163969    8681.3389   -1446.7047   -2691.8031   -1362.5028   -36.385731    207.70185    313.51148   -4699.5318 
19690000     199.8504   -4801.9764   -4416.5481   -4801.9764            0    341.89201    20.207908    20.157644    21.104437    8596.7618    40.118302    1477.4116   -491.85387   -357.78348   -59.228211    935.60144   -4373.6834 
19691000    202.38185   -4829.1139   -4438.8035   -4829.1139            0   -449.14543    20.232783    20.149002    21.230139    8654.8988   -738.48714   -228.43694   -380.51222    93.359534    306.65469    17.688335   -4495.4959 
19692000    202.81954   -4829.3331   -4438.1785   -4829.3331            0   -486.52419    20.340713    20.170851    21.206415    8700.7691   -1914.0969    247.66073    206.86366   -337.00123    159.50938    277.57244   -4499.9144 
19693000    199.67743   -4824.1734   -4439.0786   -4824.1734            0    204.90556    20.423322    20.070873    21.258657    8714.2192    -2220.332     2327.662    507.38667    429.08919    -549.7697   -394.68439   -4413.0376 
19694000    211.70198   -4830.6816   -4422.3965   -4830.6816            0    -240.4687      20.1779    20.280864    21.210793    8679.9917   -469.87547   -1147.2704    895.73981    373.49395   -254.27218   -975.98786   -4452.8371 
19695000    195.38119    -4821.465   -4444.6559    -4821.465            0   -875.42678    20.189629    20.131124    21.228916     8628.279   -813.13762   -1228.5897   -584.55298      23.4221   -272.10119    83.457107   -4554.8149 
19696000    199.70668   -4832.7577   -4447.6065   -4832.7577            0   -958.36141    20.398387    20.006688    21.155365    8633.5925   -2887.2289    1690.6517    -1678.507    409.74878    1465.6537   -589.06601   -4568.2758 
19697000    202.62809   -4837.2343    -4446.449   -4837.2343            0   -1701.8085    20.365007    20.158649    21.118182    8669.6687   -781.41872   -1930.4939   -2393.5127    -501.1186   -767.60717    230.77399   -4661.6226 
19698000    205.30828   -4830.1083    -4434.154   -4830.1083            0   -1236.5585    20.139574    20.155349    21.372821    8675.6584   -411.88412   -1181.9616   -2115.8297    4.3999296     458.5652    459.66058   -4590.6103 
19699000    215.53924    -4843.062   -4427.3765    -4843.062            0   -539.95852    20.265029    20.255716    20.879619    8570.7217    108.48603   -1688.1317   -40.229899   -143.04433    626.69232   -1669.7728   -4494.8687 
19700000    193.22125   -4821.4851   -4448.8417   -4821.4851            0   -503.77401    20.036743    20.289137    21.234711    8632.5094    1969.9716   -1875.5709   -1605.7227    265.63931    233.36094    -120.5987    -4512.265 
19701000    190.35933   -4817.9212   -4450.7973   -4817.9212            0    -1421.421    20.271368    20.162053    21.294389    8703.2809   -1698.3574   -286.57916   -2279.3265    254.98587   -939.97656     531.4169    -4631.216 
19702000    209.80448   -4843.1499   -4438.5244   -4843.1499            0   -652.04865    20.165057    20.160903    21.264682    8645.0664    227.60202   -1729.7079   -454.04007    162.47167   -185.55834    856.65556   -4520.7343 
19703000    189.83586   -4833.0515   -4466.9371   -4833.0515            0   -1381.0122     20.26707    20.320579    21.077584    8680.5628    -1130.752   -2448.1967   -564.08786   -289.64267    -692.6583    560.33697   -4641.7692 
19704000    189.68239   -4832.6707   -4466.8523   -4832.6707            0   -1448.7677    20.307261    20.023845    21.372091    8690.5215   -797.57113   -2740.3838   -808.34828   -211.17803    166.38579     1029.388   -4650.4725 
19705000    194.91437    -4844.553   -4468.6443    -4844.553            0   -1515.2885    20.300383     20.22595    20.915847    8587.9325   -2814.2366   -1294.5096    -437.1194   -172.26346   -828.18492     1581.991   -4658.4284 
19706000    196.74975   -4850.1421   -4470.6937   -4850.1421            0    1276.4276    20.176708    20.232439    21.127987     8624.952    2048.6878   -157.08537    1937.6804    1.4699173     360.0612    27.039053   -4310.1368 
19707000     201.3936   -4833.5857   -4445.1812   -4833.5857            0   -425.73394    20.155825    20.146325    21.305615    8651.4816   -834.71786    578.53243   -1021.0164   -705.59025    22.188035   -502.97934   -4498.8973 
19708000    202.37423   -4822.5893   -4432.2936   -4822.5893            0   -1605.8811    20.294292    20.228856    21.181372    8695.5952   -2968.5799   -535.36044   -1313.7031   -6.8397854    896.49779    892.13635   -4635.9456 
19709000    198.08144   -4825.5474   -4443.5307   -4825.5474            0   -227.41773    20.236443    20.233304    21.019796    8606.5575     487.0125   -800.68099   -368.58469   -147.89816   -274.24667   -299.39884   -4472.0757 
19710000    208.21345   -4816.8459   -4415.2888   -4816.8459            0   -153.02831    20.088534    20.182767    21.493333    8714.3043   -610.14349    973.82643   -822.76787    354.69514     2104.958    646.98852    -4434.737 
19711000    205.31589   -4832.0157   -4436.0468   -4832.0157            0   -823.93488    20.258813    20.240926    21.304369    8736.0089   -407.24189   -895.11955   -1169.4432   -480.23371    202.64287   -795.98776   -4541.0208 
19712000    203.09803   -4835.9015   -4444.2099   -4835.9015            0    600.34583    20.247349    20.087976    21.169037    8610.0455    88.295452    2007.6125   -294.87047   -37.888906    1874.5113   -289.50584   -4368.8252 
19713000    202.98335    -4815.632   -4424.1615    -4815.632            0    -648.8591    20.250127    20.020547    21.310074    8639.5003   -1115.8931   -12.171579   -818.51258    514.15587    -121.7104   -34.279697   -4505.9167 
19714000    198.87736   -4820.6548   -4437.1031   -4820.6548            0   -441.27049    20.314353    20.175293    21.033236    8620.4304   -1607.1566    646.83793   -363.49277   -146.28316    231.28021   -569.10085   -4492.5797 
19715000     193.0104   -4853.9835   -4481.7467   -4853.9835            0   -249.08851     20.16534     20.25411    21.146525    8636.8966    442.74011   -898.26517   -291.74046    640.26858   -22.238688   -547.72185    -4513.122 
19716000    193.17439   -4826.1736   -4453.6206   -4826.1736            0   -167.94868    20.142816    20.139112    21.577659    8753.1591    1190.3697   -858.63376   -835.58195   -16.017848   -128.29938    1379.8899   -4475.0602 
19717000     185.5618   -4831.1512   -4473.2797   -4831.1512            0    379.50604    20.189777    20.056986    21.189861    8580.7512    436.34849    619.11743    83.052207   -299.56444   -343.92863   -267.89199   -4425.7877 
19718000    200.51813   -4813.9682   -4427.2521   -4813.9682            0   -754.33544    20.159792    20.380741    21.057742    8652.0261    1216.1398   -2912.7691   -566.37701   -298.97386    222.76613    92.326591   -4522.4348 
19719000    211.90885   -4843.9744   -4435.2904   -4843.9744            0   -456.53824    20.116056    20.000696    21.657745    8713.6714   -52.701084    994.77184   -2311.6855   -285.86784    778.11346   -142.26805   -4493.3072 
19720000     187.2501   -4828.6076     -4467.48   -4828.6076            0     31.73141    20.242534    20.234208    21.019987    8609.6111    577.91876    343.59641   -826.32094    115.37037   -220.79769    125.83112   -4463.4958 
19721000    192.07812   -4819.3338    -4448.895   -4819.3338            0   -632.49698    20.147498    20.284738    21.273297    8694.1141   -191.52861   -1170.1422   -535.82012    15.160867    17.713414   -431.06063   -4529.0923 
19722000    197.75866   -4841.2401   -4459.8459   -4841.2401            0    754.83814    20.119176    20.009439    21.282721     8567.858    141.44315    1716.4879    406.58337   -298.68566       164.79    -609.4126   -4365.5263 
19723000    194.46639   -4833.8094   -4458.7646   -4833.8094            0   -2529.5406    20.370661    20.252196    21.120475    8713.2651   -3389.0183   -1629.3557   -2570.2479   -196.99568    623.26139   -409.05176   -4780.2035 
19724000    199.88135   -4831.7479   -4446.2599   -4831.7479            0   -1713.8131    20.331035    20.170139    21.309497     8738.594   -751.62539   -3385.8208    -1003.993   -590.83251    403.85689    797.46418   -4664.6741 
19725000    193.07829   -4832.7757    -4460.408   -4832.7757            0   -643.34132    20.229713    20.085576    21.423607    8704.9565    945.35025   -2004.9987   -870.37548   -574.03534   -578.06035    801.00637    -4542.082 
19726000    196.53929   -4821.4971   -4442.4546   -4821.4971            0    341.55681    20.122988    20.206976    21.329548    8673.1216    98.972476    456.49637    469.20159    251.26522   -652.89544   -51.042089   -4399.2515 
19727000     214.0695   -4814.0951   -4401.2441   -4814.0951            0    1058.8831    20.310854    20.238427    20.710673    8513.3239    752.15634    490.76986    1933.7232   -128.97716    -472.2503    -158.2943   -4269.7752 
19728000    211.46731   -4836.2886   -4428.4561   -4836.2886            0     16.92376    20.117625    20.258556    21.126575    8610.2206    263.07793     -889.257    676.95036    53.117127   -1518.4319    576.21594    -4426.331 
19729000     202.5851    -4821.325   -4430.6226    -4821.325            0   -848.30585    20.230698    20.177027    21.422347    8744.5022   -1308.1518    -332.8102   -903.95561   -697.09793    216.76991    1363.2044   -4538.8067 
19730000    205.92039   -4809.4063   -4412.2715   -4809.4063            0   -831.06811    20.406686    20.145741    20.959448    8616.5928   -1718.2072   -340.84546    -434.1517   -883.29113   -780.93066   -233.06605    -4516.707 
19731000    208.65923   -4835.1832   -4432.7663   -4835.1832            0   -1212.6372    20.327271    20.151963    21.273745     8714.458   -1974.8249   -620.99409   -1042.0926   -392.01837    945.05046   -639.75825   -4586.8821 
19732000    205.86544   -4835.0797   -4438.0509   -4835.0797            0    -526.2696    20.178572    20.128047    21.420331    8699.9798   -1931.0847    1349.1543   -996.87837    496.86998   -887.70174    378.64742   -4504.8241 
19733000    200.15947   -4841.1904    -4455.166   -4841.1904            0    111.33242    20.345711    20.128892     20.99316    8597.4678   -144.21237    110.20804    368.00158   -235.64071    343.40416   -151.03568   -4441.2066 
19734000    210.24167   -4832.6275   -4427.1588   -4832.6275            0   -1113.9943    20.190334    20.325708    21.074917    8648.7841    -1908.236   -930.16395   -503.58292   -194.07452   -820.33017    985.46374   -4567.6709 
19735000    195.85151   -4841.5241    -4463.808   -4841.5241            0   -950.66335    20.164562    20.223907    21.338981    8702.1696   -16.066467   -1346.8161   -1489.1075   -131.99427   -55.089735    254.78967   -4584.4588 
19736000    194.57078   -4835.5715   -4460.3253   -4835.5715            0   -1303.0469    20.278997    20.201903    21.222644    8694.3726   -1264.2242   -1357.2336   -1287.6829   -601.89113    566.72809     145.0261   -4625.5497 
19737000    201.98633   -4835.8057   -4446.2581   -4835.8057            0    -1207.337    20.250982    20.274362    21.080006    8654.9392   -2172.3284   -567.37746   -882.30511   -536.16712   -51.701337    671.31431   -4598.6523 
19738000    204.62596   -4826.0333   -4431.3949   -4826.0333            0    -968.7943    20.050042    20.210514    21.361067     8655.967   -621.14596   -1168.0373   -1117.1996   -285.55602   -462.55691    1079.9642    -4553.694 
19739000    203.00533   -4841.6345   -4450.1217   -4841.6345            0   -1540.3088    20.360075    20.038211    21.228072    8660.6175   -1469.6028   -1532.7782   -1618.5455   -595.81652   -156.18716     456.5736   -4644.6723 
19740000    201.68553   -4826.7646   -4437.7971   -4826.7646            0   -1059.6471    20.190647    20.308007    21.018346    8618.1902   -937.07697   -1821.0035    -420.8608    437.93351    737.99787   -596.94231   -4570.9814 
19741000    190.48786   -4834.5135   -4467.1417   -4834.5135            0    -1007.112    20.154047    20.097049    21.287439    8622.1978   -194.83002   -1063.0361   -1763.4699    18.573721   -989.78677   -849.59304   -4593.7819 
19742000    209.27406   -4840.7493   -4437.1467   -4840.7493            0   -1567.1897     20.16322    20.280601    21.523523    8801.4469   -1389.3613   -1007.8049    -2304.403    415.13015   -893.71278   -521.04151   -4638.3113 
19743000    199.94012    -4817.556   -4431.9547    -4817.556            0   -192.45345    20.171957    20.267791     21.08825    8621.7418   -776.62078    1136.7959   -937.53547   -478.21613    288.48173    715.88411   -4456.1537 
19744000    202.06486   -4828.0888   -4438.3897   -4828.0888            0   -335.08067    20.280557     20.12681    21.106078    8615.1408    697.00959   -724.44861   -977.80298   -158.92214    477.98306    355.78722   -4480.4903 
19745000    211.50945   -4815.1553   -4407.2416   -4815.1553            0   -2218.3194    20.147561    20.308114    21.345296    8733.6193   -2913.1424   -2017.6316   -1724.1843   -488.15695    1933.9801    64.203166   -4689.7909 
19746000     208.9663   -4833.7566   -4430.7475   -4833.7566            0   -1487.0886    20.143389    20.247713    21.223104    8656.0035   -1207.6742   -2621.8107   -631.78085    317.14232    983.69307   -518.75429    -4618.476 
19747000    198.46241   -4829.3578   -4446.6064   -4829.3578            0   -847.83512    20.224983    20.199422    21.030228    8591.5419   -1210.9537     -645.461   -687.09063   -44.150108    735.80465   -1136.0125   -4552.8391 
19748000    206.22664   -4824.9514    -4427.226   -4824.9514            0   -284.69446    20.209465    20.291972    21.165092    8679.5906    862.34664   -1419.9785   -296.45155    388.95948   -643.95489    56.886138   -4463.2635 
19749000    194.07001   -4835.8988   -4461.6185   -4835.8988            0    -61.47054    20.316765     20.15208    20.909802    8560.9971   -1739.4399    1179.9575    375.07085    177.53027    490.24827    837.03822   -4469.2933 
19750000    207.40649   -4801.4445   -4401.4436   -4801.4445            0   -2717.2915    20.172644    20.118841    21.675152    8796.8652   -877.52881   -3545.5929   -3728.7527    544.27902     -716.311    274.31144   -4750.0538 
Loop time of 497.167 on 64 procs for 250000 steps with 972 atoms

Performance: 86.892 ns/day, 0.276 hours/ns, 502.849 timesteps/s
99.0% CPU use with 64 MPI tasks x 1 OpenMP threads

MPI task timing breakdown:
Section |  min time  |  avg time  |  max time  |%varavg| %total
---------------------------------------------------------------
Pair    | 18.543     | 26.778     | 34.879     |  78.0 |  5.39
Bond    | 0.26545    | 0.27798    | 0.29691    |   1.0 |  0.06
Kspace  | 209.34     | 226.03     | 237.18     |  37.5 | 45.46
Neigh   | 2.1241     | 2.4882     | 2.7906     |  11.7 |  0.50
Comm    | 102.11     | 108.66     | 120.26     |  41.9 | 21.86
Output  | 1.927      | 1.9277     | 1.9402     |   0.1 |  0.39
Modify  | 118.6      | 121.95     | 125.98     |  15.0 | 24.53
Other   |            | 9.048      |            |       |  1.82

Nlocal:        15.1875 ave          18 max           9 min
Histogram: 1 0 2 5 6 6 12 13 11 8
Nghost:        2088.61 ave        2121 max        2057 min
Histogram: 4 7 3 5 12 12 7 7 3 4
Neighs:        4488.77 ave        5705 max        2833 min
Histogram: 2 2 3 7 9 10 13 6 7 5

Total # of neighbors = 287281
Ave neighs/atom = 295.55658
Ave special neighs/atom = 2.0000000
Neighbor list builds = 5106
Dangerous builds = 0

unfix		3
unfix		2
unfix		1

write_data	data.final.${pid}
write_data	data.final.0
System init for write_data ...
PPPM initialization ...
  extracting TIP4P info from pair style
  using 12-bit tables for long-range coulomb (../kspace.cpp:340)
  G vector (1/distance) = 0.37084152
  grid = 24 24 25
  stencil order = 5
  estimated absolute RMS force accuracy = 0.0036043394
  estimated relative force accuracy = 1.0854361e-05
  using double precision FFTW3
  3d grid and FFT values/proc = 2366 288
Last active /omp style is kspace_style pppm/tip4p/omp
WARNING: Not all mixed pair coeffs generated from mixing. Use write_data with 'pair ij' option to store all pair coeffs. (../write_data.cpp:312)

write_restart   restart.lmp.${pid}
write_restart   restart.lmp.0
System init for write_restart ...
PPPM initialization ...
  extracting TIP4P info from pair style
  using 12-bit tables for long-range coulomb (../kspace.cpp:340)
  G vector (1/distance) = 0.37084152
  grid = 24 24 25
  stencil order = 5
  estimated absolute RMS force accuracy = 0.0036043394
  estimated relative force accuracy = 1.0854361e-05
  using double precision FFTW3
  3d grid and FFT values/proc = 2366 288
Last active /omp style is kspace_style pppm/tip4p/omp
Total wall time: 0:08:23
