LAMMPS data file via write_data, version 30 Jul 2021, timestep = 9000000

864 atoms
2 atom types
576 bonds
1 bond types
288 angles
1 angle types

0.3789873382479705 17.82858506175475 xlo xhi
1.537928294392513 22.091249505610346 ylo yhi
0.46236366744916957 21.750832132543216 zlo zhi

Masses

1 1.00794
2 15.9994

Pair Coeffs # lj/cut/tip4p/long/omp

1 0 0
2 0.21084 3.1668

Bond Coeffs # harmonic/omp

1 450 0.9572

Angle Coeffs # harmonic/omp

1 55 104.52

Atoms # full

480 1 1 0.5897 1.8658919613039415 3.5919482839892347 2.804318589295428 -4 5 -5
792 1 1 0.5897 2.201813112799944 6.281284752607254 1.1127085174246456 4 3 2
184 1 2 -1.1794 0.8439217974191311 6.56657537113447 3.68884327707269 0 5 1
241 1 2 -1.1794 4.189578851553067 1.603736589468486 0.9260740020529798 0 -3 6
64 1 2 -1.1794 8.389635706902109 3.8198169643754736 1.0205162754688286 4 0 -2
243 1 1 0.5897 3.968471631863302 2.0750852848030674 1.7293274037752584 0 -3 6
595 1 2 -1.1794 5.894866171599391 4.069092595916128 4.741772499062489 5 -5 3
702 1 1 0.5897 5.417515095463575 5.793875515886119 5.169577408674613 6 1 2
478 1 2 -1.1794 0.9788935127910123 3.9324070710304744 2.6875950838129072 -4 5 -5
33 1 1 0.5897 6.198206546258656 4.768984895181641 1.914650899079803 3 6 1
816 1 1 0.5897 4.062388180218729 3.9178046379771443 2.717007910340047 -4 8 -5
31 1 2 -1.1794 5.37291149609294 5.076518249260298 1.5397123731420792 3 6 1
596 1 1 0.5897 6.826275498822511 4.2211527969904274 4.581671637977245 6 -5 3
651 1 1 0.5897 8.972253012215905 3.2996982477036076 4.300165362622836 1 -1 2
815 1 1 0.5897 3.626774153072444 3.3433150110278307 4.048251243741229 -4 8 -5
66 1 1 0.5897 8.539803625718543 3.5187685067782013 1.916685082179821 4 0 -2
303 1 1 0.5897 7.445971398272322 2.3598426234214083 0.7542357617870765 -2 3 6
814 1 2 -1.1794 3.6972172092735143 3.1290429462180036 3.117985206355194 -4 8 -5
479 1 1 0.5897 1.0795828286165872 4.883463067170036 2.7281294212563796 -4 5 -5
650 1 1 0.5897 8.861239731044533 4.644496681948313 3.6137431470433987 1 -1 2
470 1 1 0.5897 6.285289360317589 2.282845956832833 3.926792945608044 3 0 3
649 1 2 -1.1794 8.38795870944597 3.8241360733984124 3.75259664099047 1 -1 2
597 1 1 0.5897 5.872188046883496 3.5289260090670336 5.531696506431719 5 -5 3
124 1 2 -1.1794 2.8023446484261827 3.5516981717200387 5.725625377835353 3 1 5
32 1 1 0.5897 5.390969123368734 4.767609154382232 0.6338868683752071 3 6 1
242 1 1 0.5897 5.133661770753543 1.7274821316052078 0.8273236114029608 0 -3 6
797 1 1 0.5897 0.49353513137496563 3.939151286660801 4.836057453226806 -1 -3 -4
700 1 2 -1.1794 5.124154265210323 6.664411762469468 5.43859997173287 6 1 2
185 1 1 0.5897 1.7488822917754514 6.648516368770535 3.3877880434152328 0 5 1
301 1 2 -1.1794 6.962494757524344 1.562624146251634 0.5375301568208286 -2 3 6
795 1 1 0.5897 0.4181271830498977 1.72858396302497 8.174247708796418 -3 2 4
698 1 1 0.5897 3.6845597153582497 3.600276353412618 8.962091064536567 -2 4 -2
554 1 1 0.5897 9.058659475860217 3.307855103636041 7.4593070822399765 -4 -7 2
30 1 1 0.5897 6.400693328343745 5.443214179860358 9.821410145050267 -7 2 5
793 1 2 -1.1794 0.6516561190723178 2.455553757261888 8.751529725541994 -3 2 4
523 1 2 -1.1794 5.800907189463945 2.1224978908590226 10.794417516873814 0 1 5
622 1 2 -1.1794 8.735515755544384 2.4359694454409633 10.74568443389582 4 2 3
291 1 1 0.5897 5.114203430429727 2.860719954325759 7.918496595451265 -10 -4 -5
29 1 1 0.5897 7.827543215134827 4.965263149552612 9.655121593287733 -7 2 5
253 1 2 -1.1794 2.8197287299006057 6.192935865206494 7.184348024058856 0 4 -4
289 1 2 -1.1794 5.899944854836144 2.697593623376128 7.396692877530798 -10 -4 -5
553 1 2 -1.1794 8.50883048914606 3.9286405508023097 7.937407869760259 -4 -7 2
290 1 1 0.5897 5.9252657961407165 1.746460593600836 7.29189320707952 -10 -4 -5
697 1 2 -1.1794 3.6098182340704263 2.646060691316719 8.949699965150492 -2 4 -2
376 1 2 -1.1794 4.619381794563762 5.16250087477502 9.228158820531917 2 6 3
699 1 1 0.5897 2.7209442760050915 2.470924374900807 9.258725340992648 -2 4 -2
624 1 1 0.5897 7.787155328298864 2.4120697565275506 10.873433019464029 4 2 3
377 1 1 0.5897 4.036844624790005 5.528652345738338 8.562688309128987 2 6 3
28 1 2 -1.1794 7.308201818766526 5.695254028688049 9.992278221576184 -7 2 5
236 1 1 0.5897 8.975631054743712 5.367991419733231 6.808165859784319 -1 -3 -3
525 1 1 0.5897 5.1874149945052626 2.1844961217509953 10.062252605223057 0 1 5
794 1 1 0.5897 0.585804983388028 3.233028709175847 8.197027277132728 -3 2 4
378 1 1 0.5897 4.398811157868988 5.638911969864924 10.028572478059463 2 6 3
555 1 1 0.5897 7.614539250815341 3.6218201457709016 7.787827178068652 -4 -7 2
203 1 1 0.5897 0.45458546258181626 3.4236155540409645 10.374131288057773 -1 4 -1
126 1 1 0.5897 2.670953227450245 4.297636064633822 6.310974617400822 3 1 5
254 1 1 0.5897 3.4712628048372878 6.552837062859999 6.582454532082857 0 4 -4
125 1 1 0.5897 2.3852365294008635 2.817057124929015 6.175737578853097 3 1 5
623 1 1 0.5897 8.900000124836701 1.7999819836719608 10.04944869240891 4 2 3
564 1 1 0.5897 1.7980678287941887 4.099118985088628 12.19192325171224 2 -2 3
134 1 1 0.5897 8.206928741058057 5.98869228910928 12.648047140521465 1 -6 -4
563 1 1 0.5897 2.238515161615461 5.312231070550165 12.9833734549324 2 -2 3
746 1 1 0.5897 5.414296461574318 3.0238938284270187 12.352263922143223 4 4 -8
747 1 1 0.5897 4.5384838281696105 4.137379768837943 12.886267038170189 4 4 -8
362 1 1 0.5897 3.833941365396302 2.133348561566346 13.017098985990941 4 -2 1
562 1 2 -1.1794 2.5092837704311335 4.426149130594334 12.742837415369317 2 -2 3
364 1 2 -1.1794 9.071183371315797 3.6408877411731666 14.261891729174886 4 5 5
745 1 2 -1.1794 5.154716419735399 3.4596383447405143 13.164101844454274 4 4 -8
567 1 1 0.5897 5.997703900519048 3.3070640032581116 14.999265422457198 -3 5 -5
566 1 1 0.5897 7.499738337356673 3.332929284290098 15.186913172199871 -3 5 -5
356 1 1 0.5897 2.3529460798445507 4.045947318769629 14.494259618508964 6 1 4
369 1 1 0.5897 0.7498277941732489 2.3522365504521323 14.54965585573606 5 7 -4
357 1 1 0.5897 2.584277949789961 2.9418268478990974 15.50394237646244 6 1 4
135 1 1 0.5897 7.370734722214552 5.139033019594987 11.714853512476575 1 -6 -4
365 1 1 0.5897 8.696769973991033 4.127199891012909 13.52730860611782 4 5 5
355 1 2 -1.1794 2.023447656842331 3.695917618879074 15.322038549606768 6 1 4
515 1 1 0.5897 0.8284293035226901 6.320583396979753 14.345162689175805 -4 -6 0
336 1 1 0.5897 6.297706541384012 5.820054364109043 13.503980823782326 5 0 4
133 1 2 -1.1794 7.710447085453808 5.1711556961705885 12.60921265918205 1 -6 -4
565 1 2 -1.1794 6.683987998526328 3.1177790069980755 15.639164695491283 -3 5 -5
335 1 1 0.5897 5.178472434652875 6.160362716997073 14.464983144213619 5 0 4
334 1 2 -1.1794 5.697925552904326 6.524905998021199 13.748347926807362 5 0 4
547 1 2 -1.1794 3.7281698825316494 1.6904629504650517 16.06023239609292 11 -1 2
202 1 2 -1.1794 0.39611506100306215 3.8751769774809155 11.21611901550957 -1 4 -1
363 1 1 0.5897 2.823925354873468 1.580790289096953 14.000236424999287 4 -2 1
692 1 1 0.5897 6.748080047160088 4.638100851052176 16.39620992802857 0 0 3
443 1 1 0.5897 4.529907722268373 3.4617422746422255 18.573774208124682 3 5 -3
122 1 1 0.5897 2.9399898706607313 2.710511187930239 21.468236907997586 6 -2 -2
765 1 1 0.5897 1.9211748549863825 4.930939168832168 16.635599770482138 -6 1 -5
790 1 2 -1.1794 1.9024792207716534 5.752847980162847 21.661297188293766 4 3 1
94 1 2 -1.1794 5.531572743868227 5.080787948740878 19.783300745949056 -5 -1 -2
791 1 1 0.5897 1.299984889644283 6.324958958767139 21.18594614490486 4 3 1
123 1 1 0.5897 2.1558531957733784 3.9758402830564163 21.192426880354866 6 -2 -2
96 1 1 0.5897 4.909161265819291 5.799088284665234 19.669586805865976 -5 -1 -2
549 1 1 0.5897 3.668201367780397 1.9659349672169628 16.97499346469135 11 -1 2
442 1 2 -1.1794 3.606479082852889 3.3011458910410467 18.379464790867182 3 5 -3
693 1 1 0.5897 5.979809718785173 5.846639670707893 16.887327853069863 0 0 3
763 1 2 -1.1794 2.095913062258539 5.327521917693181 17.48910326663777 -6 1 -5
674 1 1 0.5897 3.4129511111683093 6.452890639091004 16.568198251375584 -1 -3 -1
95 1 1 0.5897 6.3889874230975 5.481036512562666 19.638705463410567 -4 -1 -2
444 1 1 0.5897 3.2133021417060363 3.103076160031725 19.22943551355877 3 5 -3
691 1 2 -1.1794 6.862367625209527 5.479225525408826 16.83861886677625 0 0 3
71 1 1 0.5897 0.9439733322512447 1.9532925147663098 21.206275732483178 10 -1 -3
121 1 2 -1.1794 2.3104046857251 3.0927799827367615 20.856870633226755 6 -2 -2
586 1 2 -1.1794 1.1868932536051335 1.5716634215526426 17.590394083227473 1 3 5
764 1 1 0.5897 2.750268622221 4.755399759291759 17.890104511876253 -6 1 -5
627 1 1 0.5897 0.8974630885743796 4.501969472593441 18.252803099920982 -7 -5 1
293 1 1 0.5897 8.625580495245133 6.040484417748494 17.393042676666298 -4 -4 3
587 1 1 0.5897 1.2112225743044553 2.4965573578972915 17.83584884524776 1 3 5
454 1 2 -1.1794 8.580471771954484 1.5420996723573546 19.65206454577801 1 -2 0
338 1 1 0.5897 8.61485075601949 6.611709694410851 20.049506513721205 -4 -2 -1
804 1 1 0.5897 1.235436748327218 6.584374577288783 18.63082015520464 3 2 -2
634 1 2 -1.1794 7.39601217258651 10.481877557687914 2.958373433929351 -9 0 2
517 1 2 -1.1794 6.910852864399239 7.7410108454530295 3.3415595678635874 0 -1 -4
573 1 1 0.5897 3.236355099216705 9.886629375176602 1.6886110370673542 2 1 -4
572 1 1 0.5897 2.1503675819444634 9.903788370248163 0.6339413994471546 2 1 -4
170 1 1 0.5897 4.062431959792253 6.876214713619539 2.5992864889454084 -3 3 -4
320 1 1 0.5897 4.2832200773847475 10.639002322167752 4.004471108375334 7 -1 4
518 1 1 0.5897 7.3575958625768605 8.555764239703219 3.5714905503421277 0 -1 -4
636 1 1 0.5897 8.152691788589117 10.571385358431897 2.378960254015136 -9 0 2
635 1 1 0.5897 6.638757938380122 10.562757201131953 2.378413494084941 -9 0 2
319 1 2 -1.1794 3.7541610756147072 10.762097528011243 3.2162862158270697 7 -1 4
171 1 1 0.5897 3.142826680827976 7.946001013375127 2.0497273560552554 -3 3 -4
847 1 2 -1.1794 1.0129428052743528 10.507994461919699 3.7933026902818354 5 0 4
701 1 1 0.5897 5.560542252308472 7.2627767083105095 4.832134307478776 6 1 2
519 1 1 0.5897 6.494345768741557 7.925045588184293 2.499583273265368 0 -1 -4
848 1 1 0.5897 1.9513285678348813 10.696306978779011 3.7772914811876195 5 0 4
571 1 2 -1.1794 2.873817413077653 9.37276287677393 0.9669619471863826 2 1 -4
789 1 1 0.5897 8.558718951046442 6.850884322242032 3.308732042863039 3 -1 4
381 1 1 0.5897 5.558059496759659 6.688047582700876 0.8877074161831496 5 1 3
321 1 1 0.5897 3.771814993956026 11.706400043109154 3.060466401829696 7 -1 4
568 1 2 -1.1794 5.7785227877900205 10.650049117806057 0.7589730284697955 2 3 1
275 1 1 0.5897 0.8908287626430201 9.221939691370217 5.027254522561099 -3 3 -1
379 1 2 -1.1794 5.824361934091933 7.581062513779967 0.6688966410605012 5 1 3
276 1 1 0.5897 0.9974434969764676 7.759886684177925 5.4054526649463615 -3 3 -1
570 1 1 0.5897 4.920697259810673 11.072151253130095 0.7117084271466507 2 3 1
645 1 1 0.5897 0.8004796693936469 11.419454777929781 0.6279851066704911 7 -3 -1
274 1 2 -1.1794 0.8044147489894133 8.623840710547645 5.76960212000486 -3 3 -1
169 1 2 -1.1794 3.1423324018127667 7.058303838380139 2.4079244581839667 -3 3 -4
849 1 1 0.5897 0.6541831430269245 11.129659133056576 4.426631355074281 5 0 4
425 1 1 0.5897 5.978423019740761 10.449620335171758 5.683287678650144 10 -3 2
424 1 2 -1.1794 5.042843212235565 10.578499777226716 5.526924595267359 10 -3 2
569 1 1 0.5897 5.583714692725449 9.713364938081755 0.7897677018665945 2 3 1
580 1 2 -1.1794 8.413765215296733 8.478328505329623 10.829035167046133 -1 -1 2
263 1 1 0.5897 8.960878384419297 10.095104741360048 10.180980862476673 3 0 4
109 1 2 -1.1794 7.721730173257409 9.983403502341602 6.01078601617815 -2 -1 -9
574 1 2 -1.1794 3.9515766960022334 10.753700947437565 9.303683688610487 4 4 -2
576 1 1 0.5897 3.7483909720719955 10.263233146119417 8.507175355770528 4 4 -2
581 1 1 0.5897 7.499648325785954 8.622739831150692 10.584445874259199 -1 -1 2
575 1 1 0.5897 3.105313427461838 11.085672975386508 9.60356503027934 4 4 -2
178 1 2 -1.1794 5.8950191723985235 8.994038476220261 9.93967737547884 -9 3 -1
676 1 2 -1.1794 0.9056968187378253 7.686249052405633 8.989206704853515 5 2 -2
531 1 1 0.5897 8.983198575980197 11.776085502857077 8.090079295065017 -1 -2 -5
841 1 2 -1.1794 3.015665977556369 9.354001896877218 7.375706455228301 -8 3 0
111 1 1 0.5897 7.881551983136886 10.673893257757602 6.654183248618906 -2 -1 -9
110 1 1 0.5897 7.5638544300651915 9.198447881267498 6.5353894159226815 -2 -1 -9
738 1 1 0.5897 0.8974693314191267 11.509182048231837 10.28811728494299 -1 0 1
843 1 1 0.5897 3.5391487945353135 9.881198459715904 6.772095380914436 -8 3 0
180 1 1 0.5897 5.157799514434724 9.595466157198212 9.834488680921485 -9 3 -1
179 1 1 0.5897 5.880022800122141 8.455342197786779 9.148562341662686 -9 3 -1
842 1 1 0.5897 2.2115837414033788 9.16348822968327 6.892499907268006 -8 3 0
426 1 1 0.5897 4.862249464973316 11.45669447504373 5.862255082315211 10 -4 2
354 1 1 0.5897 6.175920434195222 7.354523082647532 6.777374100410968 9 3 -1
352 1 2 -1.1794 6.6892206664507246 7.707216270050827 7.504336045265478 9 3 -1
255 1 1 0.5897 2.5015468967043373 6.950899860794897 7.674785264204911 0 4 -4
201 1 1 0.5897 1.5992601964816062 8.425729788234243 10.479358154456696 2 -6 1
353 1 1 0.5897 7.1054338657701175 6.940582123920189 7.898443613442648 9 3 -1
582 1 1 0.5897 8.729933270900567 7.827470419071399 10.20236961567855 -1 -1 2
675 1 1 0.5897 4.056914458758593 7.670085558337693 15.939035419774404 -1 -3 -1
475 1 2 -1.1794 7.473718175730851 8.270882247604858 15.20017510970103 7 -2 -4
172 1 2 -1.1794 4.24974400361768 7.547089301054532 11.599219981057763 6 1 -2
403 1 2 -1.1794 5.959054925624642 9.888049401706791 13.312431500431266 4 -2 0
173 1 1 0.5897 4.523349720321454 7.441046818874791 12.510374802362824 6 1 -2
435 1 1 0.5897 1.7965616274831393 10.165933052322961 12.83136520102459 1 3 -4
477 1 1 0.5897 7.124090568005118 7.383452266664901 15.28078709347934 7 -2 -4
88 1 2 -1.1794 2.0455299573455727 7.361290211047081 13.570028343262333 5 -4 3
404 1 1 0.5897 6.772924769990707 10.126496009014652 12.868472412685295 4 -2 0
405 1 1 0.5897 5.7306058811694855 10.662244335203154 13.826958785377167 4 -2 0
89 1 1 0.5897 1.720722911667066 7.795899206515435 12.78137755684376 5 -4 3
744 1 1 0.5897 4.522239111895761 9.417934194466138 14.616475400079365 -1 -1 3
743 1 1 0.5897 3.070261506120608 9.840833555816529 14.68650564975342 -1 -1 3
433 1 2 -1.1794 1.8249994791322741 10.709074167782294 13.619114532050995 1 3 -4
476 1 1 0.5897 6.9654437525935 8.66563000943048 14.49158504279383 7 -2 -4
434 1 1 0.5897 2.2072112331152014 11.536455158589295 13.32646812175704 1 3 -4
1 1 2 -1.1794 8.637416638735996 11.333431907459708 12.588041476185108 4 -8 4
90 1 1 0.5897 2.493232978892191 8.052551617874242 14.057871893676555 5 -4 3
742 1 2 -1.1794 3.704502128134537 9.243049888294408 15.082316905747994 -1 -1 3
174 1 1 0.5897 4.8841791774065815 8.160237941823347 11.22797296351341 6 1 -2
199 1 2 -1.1794 1.842504888515374 8.853131185521525 11.300599282502226 2 -6 1
200 1 1 0.5897 2.7694076402871164 8.643246251376192 11.415036735819555 2 -6 1
673 1 2 -1.1794 4.249594336256909 6.781856069826756 16.239401015519732 -1 -3 -1
458 1 1 0.5897 8.658705413751775 7.939717547897357 13.951603588005794 -3 0 -1
459 1 1 0.5897 8.86320223734248 7.899482317379034 12.452079200404322 -3 0 -1
831 1 1 0.5897 0.41477182828805464 10.097035984832209 14.413688360347193 2 8 0
339 1 1 0.5897 7.755242665418897 7.409877722073823 19.09243614229591 -4 -2 -1
856 1 2 -1.1794 8.857888908871638 10.642497102304388 20.080678676963565 -3 1 -3
754 1 2 -1.1794 4.58030384031065 9.48578284702545 18.071869196209313 -6 -4 -7
758 1 1 0.5897 1.5824009455468329 10.382324047316846 17.554130680593175 -2 3 0
858 1 1 0.5897 8.37858576767006 10.132249409070184 19.427831505968555 -3 1 -3
755 1 1 0.5897 3.788381034713287 9.44695699672095 17.53556474954855 -6 -4 -7
441 1 1 0.5897 1.2699468073467788 11.738944229437394 19.49323413872996 0 -1 0
337 1 2 -1.1794 7.7221466771054805 6.9325922425381545 19.92151580640835 -4 -2 -1
803 1 1 0.5897 1.5899074697773095 8.056215270168336 18.63607347892104 3 2 -2
757 1 2 -1.1794 1.82297390091901 9.45704108924328 17.505960297780128 -2 3 0
862 1 2 -1.1794 7.467427941465803 9.10678253367572 17.948635109348928 1 0 0
380 1 1 0.5897 6.4278384827251145 7.478030435579109 21.221486656485972 5 1 2
104 1 1 0.5897 4.418390460754329 7.701758162225048 20.485901304169005 4 0 5
103 1 2 -1.1794 4.150871360002967 7.433207458137537 19.606928278489768 4 0 5
105 1 1 0.5897 3.21407657160416 7.252993769388059 19.685759227315756 4 0 5
863 1 1 0.5897 7.6189322036332126 8.847399095343437 17.03975910507846 1 0 0
756 1 1 0.5897 4.450965456079919 8.812546524186901 18.739928121015097 -6 -4 -7
864 1 1 0.5897 6.538214443338705 9.334286215985147 17.981576710142598 1 0 0
802 1 2 -1.1794 1.251872620017481 7.357011983263428 19.19564878153804 3 2 -2
643 1 2 -1.1794 0.9396146459869296 10.898646162530964 21.12545317151705 7 -3 -2
759 1 1 0.5897 1.1518839628021587 9.06329640868486 16.948401446091673 -2 3 0
146 1 1 0.5897 2.9724378653418273 11.587689062011194 20.836535255559426 -1 5 -5
857 1 1 0.5897 8.233865693670126 11.307920110565844 20.370645243116847 -3 1 -3
719 1 1 0.5897 4.95424975079672 11.172606386611129 18.450062585121138 2 1 3
156 1 1 0.5897 8.773819468660346 16.001617595653947 0.9842739721981565 3 3 -3
98 1 1 0.5897 1.2138730006055813 16.197304517314024 3.4202111877897865 0 -6 2
491 1 1 0.5897 7.760975800060659 12.589961758021598 3.781080962032553 2 -1 2
490 1 2 -1.1794 7.368193775986832 13.330508634801546 4.243251957304315 2 -1 2
287 1 1 0.5897 3.5763696877598066 13.9066727083508 3.6059514057943707 1 1 -1
26 1 1 0.5897 1.8770731419451687 13.16869607529696 2.0791915224290305 -2 4 8
286 1 2 -1.1794 3.7966775840086124 13.398164067164181 2.825455991648101 1 1 -1
601 1 2 -1.1794 6.000630618675082 15.151539967956888 2.5008876317180513 6 5 -1
492 1 1 0.5897 8.112552420007317 13.873373451072352 4.5030622562901215 2 -1 2
602 1 1 0.5897 5.744874921525921 15.723823505322331 3.2243189053933277 6 5 -2
154 1 2 -1.1794 8.438503152946387 16.884386112278605 0.8274434585857395 3 3 -3
132 1 1 0.5897 1.600022946383483 16.676378620395162 1.2327176332447891 -6 3 -1
603 1 1 0.5897 6.53974112426003 14.474364173434278 2.9096211615845036 6 5 -1
97 1 2 -1.1794 1.0176651388010978 16.380121546464643 4.339100449177208 0 -6 2
288 1 1 0.5897 4.560037430639359 13.842831424287024 2.4569022046297735 1 1 -1
131 1 1 0.5897 2.2398640548011146 15.305091510759095 1.279777020278666 -6 3 -1
27 1 1 0.5897 0.5136456631079888 13.106568076484553 2.734340130244677 -2 4 8
25 1 2 -1.1794 0.9578090318401172 12.973757439765349 1.8968735477475398 -2 4 8
7 1 2 -1.1794 5.454488851896671 16.68523774864584 4.768245752329152 5 0 1
532 1 2 -1.1794 2.905024703927776 14.309586707315251 5.277578113189529 -3 -1 -1
130 1 2 -1.1794 1.9913748768424542 16.04394428459866 1.8353345458210915 -6 3 -1
534 1 1 0.5897 2.999251918135082 15.188967242831248 5.643777001331115 -3 -1 -1
828 1 1 0.5897 5.929329750904098 15.085382077055607 0.7446524274252004 -5 0 4
87 1 1 0.5897 1.1218577355946977 11.981803000209498 6.439517911043712 1 6 2
721 1 2 -1.1794 0.5676755781583576 15.371119313265128 7.230534854578195 4 1 -4
494 1 1 0.5897 7.484739375571277 16.474320984744665 8.105204646193123 0 -2 -2
714 1 1 0.5897 4.554885538514528 13.681830204417572 6.128957737717873 -3 1 4
42 1 1 0.5897 6.547463844152858 14.158217234267067 9.023436009215766 -5 -1 3
529 1 2 -1.1794 8.379265450776591 12.18780968737084 7.471997905727937 -1 -2 -5
712 1 2 -1.1794 5.306320295864847 13.243474347289027 6.5283288319383725 -3 1 4
533 1 1 0.5897 2.469116652790151 13.808111889421692 5.966626834549515 -3 -1 -1
722 1 1 0.5897 1.0604736628829028 15.755236397909218 6.505336298631811 4 1 -4
85 1 2 -1.1794 1.954521435631624 12.192567608740246 6.862047502552341 1 6 2
298 1 2 -1.1794 6.758649668474633 12.474308563897177 9.74932217622075 -4 -2 0
671 1 1 0.5897 4.078598392831262 16.695284315316457 5.998650431342113 7 -3 1
40 1 2 -1.1794 6.29945446657346 14.871797867710239 8.43557454211271 -5 -1 3
299 1 1 0.5897 7.13356813764568 11.889069361289401 9.09112314078747 -4 -2 0
737 1 1 0.5897 1.190355247801536 12.875832709372478 9.70627259385373 -1 0 1
41 1 1 0.5897 6.03085691022231 14.434648002105021 7.627471734022674 -5 -1 3
86 1 1 0.5897 1.8617116165222156 11.859654002960418 7.754696814820478 1 6 2
648 1 1 0.5897 4.70810217100012 15.413660994022472 9.335848584982985 -6 -3 3
646 1 2 -1.1794 4.148320733275607 15.838614329132092 9.985751570385972 -6 -3 3
300 1 1 0.5897 5.815815516529806 12.315759794190507 9.702287508083796 -4 -2 0
740 1 1 0.5897 1.6381546036737817 14.843162263407873 9.194130557863838 1 0 3
739 1 2 -1.1794 1.7811451734938821 14.584598993934822 10.104611383899103 1 0 3
647 1 1 0.5897 3.3466769688839526 15.315519844771728 9.990800764932928 -6 -3 3
741 1 1 0.5897 0.9359057270260777 14.728003415247072 10.53038480862216 1 0 3
670 1 2 -1.1794 3.3764356647954425 16.807289829510026 6.63950511146843 7 -3 1
736 1 2 -1.1794 1.472600392238864 11.961840052784234 9.67117111887582 -1 0 1
713 1 1 0.5897 5.974531461544025 13.240436121433095 5.842942253613624 -3 1 4
530 1 1 0.5897 8.849923574665192 12.958120575868996 7.153578204781874 -1 -2 -5
373 1 2 -1.1794 3.247380525677074 15.183380751025146 15.647238987364066 3 6 -2
410 1 1 0.5897 2.419838037443025 12.696724911296986 15.959559438656095 6 0 -5
776 1 1 0.5897 6.699878228080035 15.653932414006743 11.995258951319343 0 -6 -1
383 1 1 0.5897 2.5489097188557674 13.09324121045622 11.490510333619891 -9 -2 -3
427 1 2 -1.1794 1.9923204040451565 15.572858761452357 13.328768672645225 1 -2 -3
382 1 2 -1.1794 2.9205096148836938 13.01578522991815 12.369270895244783 -9 -2 -3
409 1 2 -1.1794 3.341892813088924 12.582354583252977 16.189807354927567 6 0 -5
141 1 1 0.5897 5.760601443678499 16.496277282701403 13.865959489015081 1 2 2
384 1 1 0.5897 3.8424405931000876 12.804306758176308 12.222217363895956 -9 -2 -3
777 1 1 0.5897 5.281555558420406 15.744195461439604 11.473496548124121 0 -6 -1
259 1 2 -1.1794 5.866323458742928 12.087933175821032 15.244118971924488 2 -2 8
246 1 1 0.5897 5.462723088759851 13.85190266349537 12.61329864391467 -6 3 2
244 1 2 -1.1794 5.628912034690799 12.9112145360469 12.551898525561816 -6 3 2
245 1 1 0.5897 6.2878023545327055 12.828399230260175 11.862491344486592 -6 3 2
261 1 1 0.5897 4.963926766307341 12.240907376877269 15.52438495361305 2 -2 8
282 1 1 0.5897 7.062754703989923 15.399337807278126 15.514480094451567 -4 -1 0
280 1 2 -1.1794 7.5470534565160134 14.821156399459005 16.103911242558873 -4 -1 0
260 1 1 0.5897 5.942705909402516 12.558048794460857 14.413801908812612 2 -2 8
428 1 1 0.5897 2.5534665695494216 16.255149115006894 12.960152998681671 1 -2 -3
374 1 1 0.5897 2.822766599037219 15.234299260995979 14.790855745006468 3 6 -2
773 1 1 0.5897 8.66113105018489 13.760607804366455 14.877458575043402 0 -1 3
429 1 1 0.5897 2.23680052919641 14.778517446733915 12.853871046837705 1 -2 -3
139 1 2 -1.1794 5.868382020015174 16.58615970506504 14.81283518634847 1 2 2
775 1 2 -1.1794 5.787104841733149 15.671215730679831 12.283056085378735 0 -6 -1
2 1 1 0.5897 8.892988101494876 12.135744302739583 13.043286259825187 4 -8 4
387 1 1 0.5897 0.5655910137820451 15.584259474500474 14.42726796202791 -2 3 -1
774 1 1 0.5897 8.885136326616536 14.317161583800084 13.487469146008412 0 -1 3
314 1 1 0.5897 0.5621136864428398 14.077758183589633 15.720494617922188 -1 -4 0
375 1 1 0.5897 3.3884331156122345 14.247422336068627 15.789900901455006 3 6 -2
326 1 1 0.5897 8.707418692943577 16.083256121402787 11.670238753566315 -2 -1 -1
325 1 2 -1.1794 8.31536502202983 15.213025257478439 11.742923862988393 -2 -1 -1
313 1 2 -1.1794 0.7796216743532454 13.145598199828349 15.71293319363783 -1 -4 0
327 1 1 0.5897 8.902545933220265 14.643032144792253 11.246245734016355 -2 -1 -1
140 1 1 0.5897 5.1229515031336454 16.11491693429391 15.18503253379396 1 2 2
315 1 1 0.5897 0.4141311944115351 12.820543991025982 14.890114568006124 -1 -4 0
212 1 1 0.5897 3.756931683806423 15.164097850547385 20.656602779210246 1 0 2
58 1 2 -1.1794 7.3149447542878505 12.675775553442953 21.059738316058713 6 2 -5
147 1 1 0.5897 3.4021219671567295 13.03686345800549 20.921746677474715 -1 5 -5
164 1 1 0.5897 3.227972575825805 15.755229698565929 17.174497588471496 -7 1 -4
175 1 2 -1.1794 5.242630282941537 14.471758623002872 17.708888269966188 -4 -4 6
177 1 1 0.5897 4.46034907601184 14.97463673149967 17.935677730027578 -4 -4 6
211 1 2 -1.1794 2.8789104489161406 14.81423206963731 20.505059722883644 1 0 2
439 1 2 -1.1794 1.6825081092142318 12.109212742671891 18.712853595064573 0 -1 0
421 1 2 -1.1794 6.763804706679759 16.684947706668975 18.662277079747035 -2 -1 3
422 1 1 0.5897 6.115877973628685 16.170084330419627 18.181239678528577 -2 -1 3
38 1 1 0.5897 8.391401171006352 13.877365573352309 18.521877198206838 -3 -1 -5
440 1 1 0.5897 1.3643023784886985 13.011354136312896 18.678261885483664 0 -1 0
826 1 2 -1.1794 5.5395494409603625 14.999171091035652 21.163113717510498 -5 0 3
411 1 1 0.5897 3.3248561438594004 12.218157029330266 17.074871151590465 6 0 -5
718 1 2 -1.1794 5.113940204649947 12.065787036870356 18.755016053952986 2 1 3
145 1 2 -1.1794 3.6566859515240564 12.154679933140544 21.192340958571776 -1 5 -5
419 1 1 0.5897 7.205498536983521 11.998544620447255 16.791434873873982 -7 -3 5
418 1 2 -1.1794 7.799402993819506 12.0408561530553 17.540940830914273 -7 -3 5
176 1 1 0.5897 5.106829469992232 13.618167121066424 18.120239497652527 -4 -4 6
39 1 1 0.5897 8.885501079304408 15.217303364934876 19.02435466665966 -3 -1 -5
827 1 1 0.5897 6.108947863323148 15.515672451787882 20.592780001555106 -5 0 3
37 1 2 -1.1794 9.056946390992902 14.277263627066196 19.081706829062846 -3 -1 -5
59 1 1 0.5897 6.668675287998429 13.358499006475906 21.240032330324468 6 2 -5
213 1 1 0.5897 2.5062676752944166 15.384192877769916 19.832338321391354 1 0 2
163 1 2 -1.1794 3.273884812649619 16.102779124913106 18.065223324284446 -7 1 -4
60 1 1 0.5897 7.048951148709202 11.941375669883127 21.61308532786976 6 2 -5
281 1 1 0.5897 6.8705063677363745 14.386537388330904 16.623206003871154 -4 -1 0
818 1 1 0.5897 8.485237534285401 16.852139138656142 18.094150760754843 -1 -3 0
62 1 1 0.5897 0.3894007459714069 16.28302913474276 18.800498409683506 -3 2 0
720 1 1 0.5897 4.908856698727993 12.04053957898981 19.689668038181637 2 1 3
165 1 1 0.5897 3.742916424667962 16.932356920209266 17.97524029891727 -7 1 -4
420 1 1 0.5897 7.227379264566287 11.967033816380143 18.304885140621558 -7 -3 5
445 1 2 -1.1794 7.8881511829930195 20.434833977851873 2.3699075373565575 2 3 -1
99 1 1 0.5897 0.8508447905152989 17.32234437124282 4.366000380914332 0 -6 2
224 1 1 0.5897 3.6933864250058575 19.905559823760285 5.225804611380879 5 -1 -7
768 1 1 0.5897 3.378520581012252 17.03917053130499 2.43747401245805 -2 -1 5
317 1 1 0.5897 7.082590329589816 21.07995562910478 5.72895457081722 -1 -3 -1
630 1 1 0.5897 8.671714160004177 17.67985704909845 4.617517144780291 -4 -5 2
302 1 1 0.5897 7.371075212781846 21.434794050229925 1.071724151416209 -2 2 6
446 1 1 0.5897 7.368363575528129 19.714405659218812 2.0134276722757463 2 3 -1
689 1 1 0.5897 3.325928944996623 19.585427986306648 3.058239998026452 2 -1 4
505 1 2 -1.1794 6.161188783533837 18.28749850291795 1.1376629388025084 2 -1 0
767 1 1 0.5897 4.591823674131313 17.874099569887953 2.0870866226133815 -2 -1 5
507 1 1 0.5897 6.887132555880422 17.670649879909725 1.0437687564810902 2 -1 0
447 1 1 0.5897 7.290632619898649 20.891957961041854 2.9617533416646595 3 3 -1
4 1 2 -1.1794 0.5011939849296876 20.464212978234897 2.709206358583112 2 -2 -1
688 1 2 -1.1794 3.5380254372239897 20.472993867963375 3.34722665054111 2 -1 4
766 1 2 -1.1794 3.933552996930619 17.744664186281305 2.7698702559488964 -2 -1 5
690 1 1 0.5897 2.692254103842594 20.86060000200699 3.572430061269736 2 -1 4
6 1 1 0.5897 0.5094217556704875 20.71717648711992 1.7860510637533906 2 -2 -1
471 1 1 0.5897 5.309287625214501 21.69681646295585 3.7235715315393407 3 -1 3
469 1 2 -1.1794 6.1790120194334985 21.895760015328563 4.070370817762233 3 -1 3
628 1 2 -1.1794 8.023195729686694 18.02941026425507 5.228700406350179 -4 -5 2
8 1 1 0.5897 4.874161256086884 17.31781737943368 4.344767896919743 5 0 1
9 1 1 0.5897 6.235849005892654 17.190025502370048 4.993999860820332 5 0 1
637 1 2 -1.1794 0.4949977722831793 18.79075485766493 5.50707983026637 -3 -4 6
638 1 1 0.5897 1.306965274414152 19.297083031308276 5.482292207770794 -3 -4 6
663 1 1 0.5897 3.303797631375674 20.51653436026217 0.6427911972692328 -6 -6 1
629 1 1 0.5897 8.137749502941595 17.508888117084467 6.023817508487806 -4 -5 2
239 1 1 0.5897 3.8558961048852574 17.851800370338758 9.368374941404905 -4 -4 -1
550 1 2 -1.1794 1.635596022671197 19.922542881816327 8.801908275856643 0 5 -3
551 1 1 0.5897 0.9773358054508656 19.24968890572019 8.628044071972578 0 5 -3
600 1 1 0.5897 1.8564393294993753 21.07449630167202 6.4447910014496275 2 -6 -4
552 1 1 0.5897 1.4018840682496232 20.27020388601106 9.6626003488968 0 5 -3
223 1 2 -1.1794 3.2530424359454573 19.67092668210593 6.0427202788834435 5 -1 -7
340 1 2 -1.1794 7.79645937701486 19.23994311676563 9.66482354169918 5 6 -1
238 1 2 -1.1794 3.992706767476155 18.752427139827688 9.662370162796297 -4 -4 -1
342 1 1 0.5897 7.262543470347939 19.453387239648997 10.430101026136901 5 6 -1
495 1 1 0.5897 8.021980194454034 17.82958369425446 8.513626507293466 0 -2 -2
672 1 1 0.5897 3.14767425339647 17.73518334915064 6.585152061582397 7 -3 1
228 1 1 0.5897 5.250399053734848 19.674723729678895 8.64371448130546 4 -3 -1
225 1 1 0.5897 3.841617461237586 19.982003391673423 6.73053028829624 5 -1 -7
227 1 1 0.5897 6.027907924959033 20.07594391814817 7.408203404895311 4 -3 -1
240 1 1 0.5897 3.226095298292215 19.228297074511197 9.34275431405082 -4 -4 -1
316 1 2 -1.1794 7.4953184855785215 20.512962365540517 6.38047419531612 -1 -3 0