LAMMPS data file via write_data, version 30 Jul 2021, timestep = 11000000

864 atoms
2 atom types
576 bonds
1 bond types
288 angles
1 angle types

0.30670062185068403 17.900871778145696 xlo xhi
1.4527840907902227 22.176393709215738 ylo yhi
0.37417404229070783 21.839021757714697 zlo zhi

Masses

1 1.00794
2 15.9994

Pair Coeffs # lj/cut/tip4p/long/omp

1 0 0
2 0.21084 3.1668

Bond Coeffs # harmonic/omp

1 450 0.9572

Angle Coeffs # harmonic/omp

1 55 104.52

Atoms # full

365 1 1 0.5897 0.690205491417068 2.751922538193816 4.919694370921508 4 6 6
706 1 2 -1.1794 6.663593141365728 5.392914823515563 5.468557777107075 -2 -1 -7
714 1 1 0.5897 3.9915676636497004 3.5285484506620417 3.3673824430633785 -8 -2 3
713 1 1 0.5897 3.6496192376336 4.834802184455344 4.051969036870457 -8 -2 3
44 1 1 0.5897 5.494214106054 4.10312874976837 1.5795213655963056 0 6 0
708 1 1 0.5897 6.5114657193569405 4.563455328327059 5.015692461468684 -2 -1 -7
629 1 1 0.5897 7.05012248561889 2.1289846626496294 5.11571679466783 -2 -5 5
712 1 2 -1.1794 3.365225854122832 3.924207496606325 3.9735015038755472 -8 -2 3
728 1 1 0.5897 1.539469052321608 4.33898362509706 1.0714657495021467 -2 2 -1
628 1 2 -1.1794 6.284441397200498 2.703266279931646 5.12831494210462 -2 -5 5
366 1 1 0.5897 2.0399034552437834 3.4363571791703063 4.961603332847869 4 6 6
570 1 1 0.5897 8.164923168629617 2.225309867916908 2.010750081447628 3 -1 0
707 1 1 0.5897 6.957912476844615 5.990948958373961 4.781569630343347 -2 -1 -7
381 1 1 0.5897 7.3007589769013705 5.617612274715661 0.8086570777031452 7 3 1
727 1 2 -1.1794 1.1969457166997906 4.25197555872343 1.9610284847716732 -2 2 -1
729 1 1 0.5897 1.9677708386790045 4.327584205893279 2.5234584958586948 -2 2 -1
630 1 1 0.5897 5.6550018261862025 2.2767955072895316 4.54680017300632 -2 -5 5
364 1 2 -1.1794 1.3136779720290552 3.159961503596804 5.520547958079271 4 6 6
45 1 1 0.5897 5.823755775434646 2.6709434030003347 1.943029442782832 0 6 0
43 1 2 -1.1794 5.094585501003761 3.2881922776593324 1.8835230101086882 0 6 0
379 1 2 -1.1794 6.394264901153387 5.3102664612477835 0.8134813297556152 7 3 1
145 1 2 -1.1794 8.963306248015886 6.401964809808092 1.4936171040065829 0 2 -3
568 1 2 -1.1794 7.302204074504347 1.8252299011497626 1.9017799580354922 3 -1 0
678 1 1 0.5897 0.6245668179333688 5.58983763993421 5.097931357712915 6 -1 -4
314 1 1 0.5897 3.018095821252645 6.4567502004287025 0.7330231092327314 1 -1 -2
676 1 2 -1.1794 1.169357511161978 6.175707249015138 5.623453652935002 6 -1 -4
523 1 2 -1.1794 5.566280324494632 2.4920279066236377 7.7752729978930955 4 0 1
361 1 2 -1.1794 4.390124409576808 6.176550693211277 6.648097692875725 4 -2 -2
56 1 1 0.5897 4.121591425851171 1.6087740074386796 10.027481247063543 -1 0 1
804 1 1 0.5897 7.680894451014549 3.9938383600721408 10.00825874652965 3 2 0
171 1 1 0.5897 2.494925024779546 3.688894972261919 7.530454660845591 -3 3 -3
831 1 1 0.5897 8.148012169297282 4.853323453023736 6.419556600948316 4 3 3
802 1 2 -1.1794 6.952826908359021 4.020948160827679 9.387443309519357 3 2 0
829 1 2 -1.1794 8.770767958963608 4.452723862899015 7.026115273272293 4 3 3
525 1 1 0.5897 5.949701843074273 2.9475618389547273 8.524737155307445 4 0 1
57 1 1 0.5897 5.321755435081428 1.715768883549333 10.944000720823807 -1 0 1
757 1 2 -1.1794 3.1876558758054165 4.34366564106929 10.660337142186924 -1 3 -1
170 1 1 0.5897 3.9499906432954472 3.390609272281371 7.823224415919199 -3 3 -3
758 1 1 0.5897 3.5302771235397015 3.4542296938873833 10.74835442062361 -1 3 -1
156 1 1 0.5897 1.283101228970573 6.2603990184221825 9.852050637740705 2 6 -4
803 1 1 0.5897 6.766774675516906 4.9532860961861305 9.276328835180736 3 2 0
524 1 1 0.5897 6.190951069788304 2.632592169332472 7.063758386155154 4 0 1
169 1 2 -1.1794 3.2877756075665254 4.077488474710345 7.900073069961914 -3 3 -3
759 1 1 0.5897 3.196772270520573 4.512203171311648 9.71814207314749 -1 3 -1
362 1 1 0.5897 4.062984794949722 5.395943202444314 7.095170311083498 4 -2 -2
159 1 1 0.5897 0.8047649581969233 1.9473660522988254 8.950110426653401 0 3 -1
363 1 1 0.5897 5.102793489012891 5.855681465540877 6.095488723482054 4 -2 -2
830 1 1 0.5897 8.275769343567937 4.338050040687799 7.837312779528491 4 3 3
154 1 2 -1.1794 0.9337244711097569 5.9916405964878825 9.002375193271389 2 6 -4
356 1 1 0.5897 1.9482308405961766 1.5581073323677401 5.97524459907374 -1 -3 3
55 1 2 -1.1794 4.382923512397835 1.897529798356441 10.901864266298087 -1 0 1
325 1 2 -1.1794 1.9822955133867783 1.9074655458345653 15.165192951052049 1 -1 -1
203 1 1 0.5897 1.3985903047379333 4.647870514984961 11.401423251591956 -5 4 0
20 1 1 0.5897 4.282173660647475 5.113911482022688 11.73655925073676 -4 -4 -1
500 1 1 0.5897 3.971160228112664 5.827169281064532 13.797704718062954 0 1 -3
36 1 1 0.5897 7.9299806379380575 3.6217210015703047 13.09360531523079 -6 3 -1
672 1 1 0.5897 6.330946127974089 5.423713803693819 16.338159270109017 5 1 2
281 1 1 0.5897 6.465243734966503 5.486614512222076 12.937445150264749 -3 2 2
19 1 2 -1.1794 4.887315942154622 5.631907625276603 12.267313456387262 -4 -4 0
499 1 2 -1.1794 3.596866478764314 5.77078707286456 14.676884676591358 0 1 -3
202 1 2 -1.1794 0.5377998289834872 4.6113890224876375 11.81847182467853 -5 4 0
342 1 1 0.5897 5.877338041393235 3.3149116933186558 15.429645345564005 2 5 2
353 1 1 0.5897 1.3605274470227902 3.417093621175967 14.732951574012347 5 3 -2
280 1 2 -1.1794 7.3906103679609325 5.295295918143598 13.09013184855068 -3 2 2
282 1 1 0.5897 7.85913906589805 5.9111327931832385 12.526709773612868 -3 2 2
352 1 2 -1.1794 1.2444121389069027 4.364024490025582 14.655151830012716 5 3 -2
501 1 1 0.5897 2.8032959980794554 5.2470087606700435 14.566731594177666 0 1 -3
670 1 2 -1.1794 5.587868569424657 4.822813967570407 16.283657067132623 5 1 2
671 1 1 0.5897 4.998912789801302 5.226653093857067 15.646262124205922 5 1 2
354 1 1 0.5897 1.022483666121898 4.503761251281649 13.734584030074574 5 3 -2
350 1 1 0.5897 8.540046842023461 5.373784545639426 15.362655584116556 -13 4 -2
34 1 2 -1.1794 8.006627215043949 2.6676370895686037 13.102088537211479 -6 3 -1
341 1 1 0.5897 6.782518033712142 2.5468139944449932 14.490216668397107 2 5 2
340 1 2 -1.1794 6.129477077161285 2.4260416506638482 15.179543783576852 2 5 2
35 1 1 0.5897 7.712491582543583 2.395513654024437 12.23280647130894 -6 3 -1
327 1 1 0.5897 2.6951985661340747 1.657309834063696 14.57748119387371 1 -1 -1
386 1 1 0.5897 4.795154706419149 1.565017413708802 14.058348249853417 -4 2 0
640 1 2 -1.1794 0.6875164064521953 1.7027433015111053 12.084321694916765 6 4 -4
21 1 1 0.5897 4.973919197530916 6.459297267889727 11.793854878285694 -4 -4 0
300 1 1 0.5897 6.586225558712817 6.1774563936524585 19.425085434118813 -6 -2 -1
718 1 2 -1.1794 8.319469628727035 3.4897155626730254 19.77169947922408 6 6 1
495 1 1 0.5897 3.1338787841367557 4.551569903889613 18.216704608078516 -1 0 -2
494 1 1 0.5897 4.305238371545467 5.228513483749075 17.53734656389583 -1 0 -2
475 1 2 -1.1794 2.1068419428633707 4.923977731456164 21.041412972516806 5 -4 -1
719 1 1 0.5897 7.878876359379773 2.6631315667888553 19.968898824101945 6 6 1
799 1 2 -1.1794 3.9986762163946517 2.9549320610247163 20.87862826981 1 -2 2
299 1 1 0.5897 7.561799586279978 5.02038427138843 19.388302314997002 -6 -2 -1
186 1 1 0.5897 2.829451503788535 1.6892715832847465 21.54488655373803 -2 8 2
789 1 1 0.5897 5.831154623024507 1.6950798682943877 18.10757416849097 5 -1 4
493 1 2 -1.1794 3.5828078716398384 5.393767566018561 18.143154071817566 -1 0 -2
229 1 2 -1.1794 2.267535626175947 2.891790688915084 18.56096235695898 2 4 -1
788 1 1 0.5897 5.752672395966871 3.203563405355669 18.006352277962783 5 -1 4
801 1 1 0.5897 4.62942858046218 2.9205753913567936 20.15945606468049 1 -2 2
380 1 1 0.5897 5.958177457809095 5.838575575456019 21.609797965010245 7 3 0
298 1 2 -1.1794 7.348552268864194 5.844855180003733 18.95127897535688 -6 -2 -1
476 1 1 0.5897 2.733685429357354 4.238901674667374 20.809121519902575 5 -4 -1
231 1 1 0.5897 2.9267781146522727 2.4109756323404463 19.061401551723446 2 4 -1
477 1 1 0.5897 1.5328262703252094 4.992756910553991 20.278511240779768 5 -4 -1
800 1 1 0.5897 4.536055355909173 3.0529864307108188 21.664654253233458 1 -2 2
787 1 2 -1.1794 5.4573160279992905 2.464158002895723 18.537675906165852 5 -1 4
230 1 1 0.5897 1.4341136682178162 2.6425556277764835 18.960356136839863 2 4 -1
491 1 1 0.5897 0.7862109426122006 1.710792814168013 20.908934691624196 2 2 3
528 1 1 0.5897 4.3708652721405805 6.5904844575167925 19.732123780942928 -3 -3 0
272 1 1 0.5897 0.35827864757418837 6.461252002885793 18.778681250785144 -2 5 2
27 1 1 0.5897 7.351060400894117 6.365731267391842 17.280306361938084 -5 5 4
208 1 2 -1.1794 7.27308985707077 7.336024339100623 3.598779286042516 1 -1 1
115 1 2 -1.1794 4.72327023738072 10.721243223033076 2.585985065600019 -2 -2 3
313 1 2 -1.1794 2.9928457688147576 7.333752726825318 1.1157511555654716 1 -1 -2
692 1 1 0.5897 1.7734555135913785 10.299841503489814 2.8595283293022633 2 0 5
210 1 1 0.5897 7.186946684469953 7.9731224106728655 4.307942822164589 1 -1 1
468 1 1 0.5897 4.667289671978592 8.03417252433939 1.3665591578396312 5 -3 5
705 1 1 0.5897 0.4333383971486917 6.864337814231841 0.781233159931831 2 -3 -3
315 1 1 0.5897 3.018677843756015 7.184011573007554 2.060805372792375 1 -1 -2
860 1 1 0.5897 7.400429157433574 8.60493595646145 0.6394647631993187 -2 -4 0
691 1 2 -1.1794 2.300946944983598 10.393356893854893 3.6528136465747534 2 0 5
466 1 2 -1.1794 5.523516996110486 8.325771167047993 1.679711431943982 5 -3 5
100 1 2 -1.1794 0.5207257016605475 10.014117715937171 1.5470449684986862 7 -4 0
209 1 1 0.5897 6.601748029576364 7.589712728810386 2.9654084843911566 1 -1 1
467 1 1 0.5897 5.368835495725497 9.20953591743371 2.0132608017107776 5 -3 5
102 1 1 0.5897 0.4384398795334335 9.158077981851495 1.1267452044513209 7 -4 0
693 1 1 0.5897 3.190726733555561 10.542740096665685 3.3331339741487263 2 0 5
456 1 1 0.5897 2.526346821962965 6.663428258469183 4.467518951602312 1 0 2
116 1 1 0.5897 4.563050197771002 11.046154477183759 1.6999954873003509 -2 -2 3
147 1 1 0.5897 8.41586573901063 6.7062011593534825 2.217471038424698 0 2 -3
454 1 2 -1.1794 3.201161884796959 6.744166772899146 3.793485080998045 1 0 2
117 1 1 0.5897 5.34223226201567 11.346699042503491 2.962690818892865 -2 -2 3
455 1 1 0.5897 3.88406631776437 7.2774509145916495 4.200259567458476 1 0 2
83 1 1 0.5897 7.94612714885175 11.690919296057698 5.114179823261015 -1 -1 -4
146 1 1 0.5897 8.83454329487308 7.054043302875634 0.8048260184200463 0 2 -3
747 1 1 0.5897 1.922331911018802 9.84220140506631 5.565891507946139 2 2 -8
405 1 1 0.5897 5.330451844200904 9.81931866030713 8.193522129791205 6 -1 0
594 1 1 0.5897 6.402025225786233 9.225032432040797 6.705916452353038 -3 1 -1
459 1 1 0.5897 4.837632903919762 8.898399170918097 10.658920882235586 2 -1 -1
790 1 2 -1.1794 2.1648968999598104 11.675543464053318 8.70738755287127 0 4 -1
457 1 2 -1.1794 4.8214013493970524 7.9538765026534355 10.81329563022301 2 -1 -1
404 1 1 0.5897 4.147084107509944 9.17133110817935 7.50678783988354 6 -1 0
87 1 1 0.5897 8.787534510656542 11.591136677386709 10.089903201917933 -1 5 1
546 1 1 0.5897 6.5947193826671935 7.484433355354052 8.760775118819284 -4 4 5
12 1 1 0.5897 3.0870076266549074 7.593159616387286 10.979049684695616 -2 2 5
225 1 1 0.5897 7.1992266499627995 9.457832813022879 10.206214535107778 0 -1 -6
223 1 2 -1.1794 7.114569791574126 9.412926493148579 9.253814761841495 0 -1 -6
585 1 1 0.5897 4.4281240746553845 11.274418810347433 6.318469680230843 6 -6 2
224 1 1 0.5897 7.494873089821447 10.2334118912808 8.940101605804173 0 -1 -6
132 1 1 0.5897 5.031144742914719 11.357271848315344 10.428594241770202 -6 2 -1
458 1 1 0.5897 5.2455164887525045 7.577355360728937 10.042207904097157 2 -1 -1
792 1 1 0.5897 2.1964723694310138 11.186964442238855 7.884865158623836 0 4 -1
168 1 1 0.5897 8.671568246404535 7.913820976344608 6.799451597903517 -4 -1 1
403 1 2 -1.1794 4.879086054217577 9.768085521394882 7.350991502295083 6 -1 0
295 1 2 -1.1794 7.956956939948378 11.813040876846825 8.582168068929183 -2 4 -1
808 1 2 -1.1794 2.5872842856030345 7.90388222647141 7.811286470311745 4 -1 -2
745 1 2 -1.1794 1.716813860094045 10.027363793997482 6.482240063203595 2 2 -8
746 1 1 0.5897 1.960147703282479 9.22792238874958 6.949039766694095 2 2 -8
809 1 1 0.5897 3.1547566346101785 7.271572764025607 7.3703906149207805 4 -1 -2
810 1 1 0.5897 1.8438483267012433 7.385399964867439 8.119010570473714 4 -1 -2
297 1 1 0.5897 8.239215945538293 11.652463167967497 7.681742324580927 -2 4 -1
130 1 2 -1.1794 4.427387795348335 10.653337358670754 10.191573071669296 -6 2 -1
131 1 1 0.5897 3.851051121632123 11.042737227307978 9.533983949125709 -6 2 -1
11 1 1 0.5897 1.7279699974893004 8.186840853550743 10.675019861596992 -2 2 5
545 1 1 0.5897 5.570667944869218 6.665549229986659 8.004056744717605 -4 4 5
677 1 1 0.5897 0.545224426060838 6.680284676158833 6.145061442272624 6 -1 -4
544 1 2 -1.1794 6.092334551455373 6.670969117545507 8.80660214799929 -4 4 5
85 1 2 -1.1794 9.071855266116517 11.236649526736606 10.932348894805523 -1 5 1
791 1 1 0.5897 1.2312296053512777 11.759723186902642 8.900805961256697 0 4 -1
82 1 2 -1.1794 8.541476724364307 11.440147253722545 5.820500705776353 -1 -1 -4
593 1 1 0.5897 7.51832596584353 9.94207351495295 5.976824417423145 -3 1 -1
592 1 2 -1.1794 7.199616889657522 9.067688244718852 6.200633577764003 -3 1 -1
105 1 1 0.5897 6.385975270691444 9.460677256550717 12.60686584191578 4 -1 5
52 1 2 -1.1794 2.1079083158710414 10.602443496967494 14.772614823314562 -3 -1 4
552 1 1 0.5897 2.270603856256492 7.654476148462332 12.976191628324028 -6 5 -3
318 1 1 0.5897 5.45044296631978 9.024272068164718 14.604349287577081 -6 -4 1
122 1 1 0.5897 5.801068004466281 9.788023769237677 16.443747452120423 -1 -2 -3
86 1 1 0.5897 8.30770007938048 10.765684899650386 11.264741908417506 -1 5 1
121 1 2 -1.1794 6.514352217710892 9.321924858789856 16.007625441307535 -1 -2 -3
317 1 1 0.5897 4.297659422075265 8.609232263619774 13.715142359519147 -6 -4 0
316 1 2 -1.1794 5.094318136252044 9.139790584426482 13.723393662203938 -6 -4 1
481 1 2 -1.1794 8.56271437499133 10.607100174726247 14.321377233432292 0 2 -1
53 1 1 0.5897 1.2722135593379416 10.410577304897357 15.1980822502774 -3 -1 4
103 1 2 -1.1794 7.174397302017538 9.605101731867673 12.083649746103397 4 -1 5
369 1 1 0.5897 4.555134012730924 11.014127829203451 13.406634215534895 3 4 -4
123 1 1 0.5897 7.130943285984562 10.009086352217993 15.754951704798522 -1 -2 -3
104 1 1 0.5897 7.62973273426224 8.763275937797747 12.098365811470579 4 -1 5
550 1 2 -1.1794 2.333867323076215 8.0236112575854 13.857077638189498 -6 5 -3
54 1 1 0.5897 2.306853401535479 9.813864201195214 14.267845291781718 -3 -1 4
483 1 1 0.5897 8.06718592801625 10.248670731960441 13.585025845183592 0 2 -1
551 1 1 0.5897 2.6090349309670016 7.289201071285961 14.40585002104296 -6 5 -3
529 1 2 -1.1794 8.631609190891933 7.150908165194839 11.54722389646694 0 -1 -8
482 1 1 0.5897 9.073239985805069 11.32224131656145 13.941668862529099 0 2 -1
839 1 1 0.5897 3.399190965877711 10.29977045367572 15.852639004455217 -3 -1 -3
25 1 2 -1.1794 7.418603762704358 6.689532081270857 16.382063428607875 -5 5 4
26 1 1 0.5897 7.112163781401057 7.595100898489992 16.429754302211958 -5 5 4
10 1 2 -1.1794 2.151595519360842 7.461051805476854 11.133268018494405 -2 2 5
375 1 1 0.5897 2.3066134103161766 8.801272375660211 20.992637925213117 3 5 -1
589 1 2 -1.1794 6.0067693373467845 9.39250235720388 19.781926377802538 1 3 3
780 1 1 0.5897 6.4777255233723094 10.912309366415837 18.739275421881555 -2 -1 -1
685 1 2 -1.1794 3.0726237744396285 8.06419834500418 18.0273488202209 8 -8 -3
679 1 2 -1.1794 4.390511717665587 11.143423361795497 21.445497246137627 -4 -6 0
590 1 1 0.5897 6.764531189954905 9.103735509692843 20.290575644797237 1 3 3
859 1 2 -1.1794 8.064806657202066 8.550446468945177 21.417399351659174 -2 -4 -1
687 1 1 0.5897 2.1355402021588543 8.205065374756085 17.892159321145616 8 -8 -3
373 1 2 -1.1794 2.4898656624666344 9.494169035823854 20.358165785996228 3 5 -1
840 1 1 0.5897 3.830585813905726 9.315770780152988 16.919175519500396 -3 -1 -3
526 1 2 -1.1794 5.155844515504685 6.831971004977944 20.223761893896928 -3 -3 0
527 1 1 0.5897 5.351820580005937 7.724749774769692 19.939572867372814 -3 -3 0
374 1 1 0.5897 2.876537134308547 9.03867752625709 19.61034692913934 3 5 -1
591 1 1 0.5897 5.483236632116352 9.902676336256855 20.399868788391096 1 3 3
838 1 2 -1.1794 4.054514813727405 10.164330972013659 16.5370529652279 -3 -1 -3
778 1 2 -1.1794 6.820781506708154 11.78214623717456 18.534515777540502 -2 -1 -1
680 1 1 0.5897 3.6585361009079445 10.632747401020387 21.099605156700648 -4 -6 0
686 1 1 0.5897 3.2032327092653095 7.132607498432477 17.85042839289325 8 -8 -3
762 1 1 0.5897 2.9827545355307423 11.419498643583358 17.59970506021968 -2 -3 -3
783 1 1 0.5897 8.875169598499351 6.933089427379377 18.729395789284364 -1 0 0
861 1 1 0.5897 8.776269847574904 9.1111708686539 21.72663661283184 -2 -4 -1
279 1 1 0.5897 3.032274898003968 15.836976374592023 2.19966795573991 -1 2 2
262 1 2 -1.1794 6.827015564216377 15.448340442279362 3.246259354464409 4 -3 7
698 1 1 0.5897 6.571489981426502 13.21998145418102 3.5877431641549404 0 4 -2
37 1 2 -1.1794 2.006702360348225 12.880874702969926 5.161619402507125 0 0 -3
77 1 1 0.5897 6.83700717498226 14.14834604068906 1.385647627233735 -6 -5 -1
841 1 2 -1.1794 0.41242238054459435 13.988879424740507 3.2190463718617823 -2 0 0
264 1 1 0.5897 7.541754489045862 15.997878130168882 3.567775084867901 4 -3 7
699 1 1 0.5897 5.8430188438282915 12.422695380058911 4.6486528250746 0 4 -2
76 1 2 -1.1794 6.802494499287379 13.223212308232704 1.1424048154582949 -6 -5 -1
68 1 1 0.5897 2.96913408565664 13.518623071360654 1.3626903609043632 5 -3 -4
69 1 1 0.5897 4.448528860772234 13.611471285702498 1.6703214814132634 5 -3 -4
724 1 2 -1.1794 6.149729316080642 16.279733546312904 0.7654794583652382 -3 -3 3
277 1 2 -1.1794 2.4669882830479914 16.600780283922965 2.3151401185560085 -1 2 2
263 1 1 0.5897 6.542432918896402 15.873710337234252 2.437377701549904 4 -3 7
510 1 1 0.5897 1.9080268924367083 16.987498993980306 4.119511161381245 5 0 2
109 1 2 -1.1794 5.083019994568545 16.60413062679695 5.058586739717124 -2 -4 -8
67 1 2 -1.1794 3.629082050948793 14.101503954576105 1.7381072787283744 5 -3 -4
111 1 1 0.5897 5.616038194335525 16.28159251895524 4.3318968144762575 -2 -4 -8
38 1 1 0.5897 1.4762678343326376 13.372246479667739 4.53438237012345 0 0 -3
359 1 1 0.5897 0.7880024869613999 11.885497364749392 1.084750541543392 1 0 -3
358 1 2 -1.1794 1.2431501947392123 12.723819388738262 1.0054602632781746 1 0 -3
697 1 2 -1.1794 6.501638831048271 12.340470906640165 3.9589613057949764 0 4 -2
278 1 1 0.5897 2.2527958887539494 16.877679578339794 1.424262847778546 -1 2 2
842 1 1 0.5897 0.8761039367372473 13.547355621187283 2.507516918431707 -2 0 0
402 1 1 0.5897 8.39612677744423 12.426190714276844 1.8826096260512 0 0 1
39 1 1 0.5897 1.9897645957673495 11.980593784122897 4.836900988674223 0 0 -3
584 1 1 0.5897 3.692795755230019 12.407343209379679 5.63463935620087 6 -6 2
743 1 1 0.5897 5.5922742474844345 15.781682996123886 10.110028744804632 -3 0 2
559 1 2 -1.1794 3.296361937105063 16.605605918183336 7.0522225973759625 2 1 2
413 1 1 0.5897 1.1653058705084198 14.450827680822336 9.134759282638779 1 -5 5
249 1 1 0.5897 5.62009965785624 13.686378650560863 10.722995097620666 -3 5 -3
583 1 2 -1.1794 4.57191145157886 12.09968324705323 5.855352725058969 6 -6 2
560 1 1 0.5897 3.9519659177633097 16.418403962291322 6.380393202403766 2 1 2
58 1 2 -1.1794 2.169201112984462 14.136586593258276 7.548948843061284 7 -2 -1
296 1 1 0.5897 7.331690935258238 12.534443538788727 8.51262469993928 -2 4 -1
532 1 2 -1.1794 7.361183832939726 15.709267217596896 6.668168026013429 -7 -2 1
412 1 2 -1.1794 0.7896448006370034 14.78384751654814 9.949741086731471 1 -5 5
533 1 1 0.5897 6.923710840726547 14.968563283392772 7.087936254567224 -7 -2 1
744 1 1 0.5897 4.146866533061251 15.404265242972604 10.355406494451591 -3 0 2
60 1 1 0.5897 2.030507546791503 13.935253463717208 6.623484265554715 7 -2 -1
394 1 2 -1.1794 5.922410060210479 13.639337060017725 7.8372701284546125 3 -2 5
561 1 1 0.5897 2.893057749287391 15.757379859453785 7.236916808823099 2 1 2
395 1 1 0.5897 5.354781602762026 13.983044373751227 8.527145233643102 3 -2 5
742 1 2 -1.1794 4.9339658231313415 15.122895033900084 9.889013575245475 -3 0 2
396 1 1 0.5897 5.368764600588313 13.025595822804322 7.354535432543777 3 -2 4
59 1 1 0.5897 2.310408498873218 13.28441202211865 7.961406814627554 7 -2 -1
414 1 1 0.5897 1.5307093899383153 14.831546896242601 10.553705753963968 1 -5 5
534 1 1 0.5897 6.65465209935876 16.196476981754607 6.244311955790736 -7 -2 1
247 1 2 -1.1794 6.021286586713432 12.882260553517233 11.052629097980702 -3 5 -3
195 1 1 0.5897 9.063568016275509 14.827282046333872 5.9961375047408065 3 -2 2
336 1 1 0.5897 7.969080484257571 16.904636557685855 7.712475122887129 4 0 2
135 1 1 0.5897 6.115264320936036 16.790018820242576 13.000796070879346 3 -4 -4
427 1 2 -1.1794 5.8001219721973465 15.23250383527128 16.159112169386155 1 0 -4
416 1 1 0.5897 6.16619555655793 13.348606628395403 15.842926697068712 0 -1 -1
133 1 2 -1.1794 6.46694348465126 16.14494508233025 13.614330375494175 3 -4 -4
368 1 1 0.5897 5.188794825690282 12.088667079734051 12.548899832840405 3 4 -3
717 1 1 0.5897 1.3898449220147215 12.884653814318929 13.440011078082405 6 -9 -3
367 1 2 -1.1794 4.813971292203004 11.935609864014875 13.41625278520984 3 4 -3
644 1 1 0.5897 8.37227576587186 16.62798863818498 14.225120098293285 3 -2 0
199 1 2 -1.1794 3.0815450370168955 13.857182786144303 13.866117215284124 3 -6 0
662 1 1 0.5897 2.84898119709684 15.191492127805182 12.421004180324235 -5 -6 2
200 1 1 0.5897 3.01678786317999 14.0748993621784 14.795970255892081 3 -6 0
661 1 2 -1.1794 2.758071888871966 15.63000342518769 11.575037665956561 -5 -6 2
763 1 2 -1.1794 8.046362225209164 14.343218746512436 12.29139269152011 -7 2 -2
391 1 2 -1.1794 1.607508462161855 16.59288713517136 15.805097448064405 4 -2 -2
765 1 1 0.5897 8.697736332780185 13.87056643444188 12.809588769555207 -7 2 -2
764 1 1 0.5897 8.5113297118839 14.595353251214174 11.493615234693532 -7 2 -2
134 1 1 0.5897 7.007289280724208 15.569003333454217 13.073463533933646 3 -4 -4
415 1 2 -1.1794 6.538385283278702 12.47534705246525 15.719689195851394 0 -1 -1
663 1 1 0.5897 2.3964202904725123 16.490213349146288 11.78825828458347 -5 -6 2
201 1 1 0.5897 3.759057295251742 13.182307579265578 13.824271730814345 3 -6 0
428 1 1 0.5897 5.944471316222553 15.576837606560808 15.277736313134403 1 0 -4
392 1 1 0.5897 1.0590612063598228 16.259570488495065 15.094941171068067 4 -2 -2
417 1 1 0.5897 5.997342230859492 12.07793202488808 15.037304738352665 0 -1 -1
248 1 1 0.5897 6.7499665214047475 13.182769788223098 11.59570814648066 -3 5 -3
715 1 2 -1.1794 0.4516802787479698 12.870562013566671 13.25063760061344 6 -9 -3
785 1 1 0.5897 2.4706197762981295 15.175122833856395 16.219850842674802 7 6 3
784 1 2 -1.1794 2.9751807485390085 14.41641788540238 16.513166208252883 7 6 3
832 1 2 -1.1794 0.5172582950941802 12.895992895203786 19.699396886520358 3 1 -1
761 1 1 0.5897 2.6908711074152545 12.899563663251596 17.472922108001857 -2 -3 -3
823 1 2 -1.1794 8.174816713954979 13.310738518031053 20.235460615745843 1 4 1
597 1 1 0.5897 5.015870867324183 16.025332996631086 20.939129566252692 2 -6 1
760 1 2 -1.1794 2.666231121494737 12.173879619502454 18.096636054538706 -2 -3 -3
444 1 1 0.5897 5.545457820196912 12.783975823523999 19.358996160900425 6 4 -2
78 1 1 0.5897 7.025557449951688 13.21132074341221 21.676488646863316 -6 -5 -2
595 1 2 -1.1794 4.392037296776987 15.890258889698103 20.225813520081196 2 -6 1
696 1 1 0.5897 8.850187989811513 15.686452860559365 18.110703467843052 2 0 0
824 1 1 0.5897 8.601067288024913 13.87400788525381 19.58950079662354 1 4 1
360 1 1 0.5897 0.9280010956730765 13.090794242007949 21.644310297375387 1 0 -4
443 1 1 0.5897 4.055361952037547 12.823650236258358 19.094495465207586 6 4 -2
834 1 1 0.5897 1.1810562132642302 12.736732998998244 19.028396579607524 3 1 -1
667 1 2 -1.1794 8.676042176344053 16.4378204431444 21.15900680297661 -6 -4 1
596 1 1 0.5897 4.447651845727601 14.954466204567188 20.03235562346168 3 -6 1
442 1 2 -1.1794 4.7223645381428945 13.119904206764527 19.713836310211214 6 4 -2
267 1 1 0.5897 1.4280260071872453 16.558965970723676 20.82186309235356 -2 -3 0
825 1 1 0.5897 7.737026757690914 12.63724756140943 19.714917261243368 1 4 1
695 1 1 0.5897 9.084275478519887 15.706466341061825 19.606251023641896 2 0 0
266 1 1 0.5897 2.9375100930079343 16.645904912025664 20.74554916127309 -2 -3 0
779 1 1 0.5897 6.820893723688244 11.821044938882931 17.578111520928157 -2 -1 -1
429 1 1 0.5897 6.386476377979268 15.74477135208833 16.715888461608625 1 0 -4
625 1 2 -1.1794 7.524154392319821 16.862394800591133 17.229272210020646 -3 -3 2
681 1 1 0.5897 4.496575656682443 11.862847838144708 20.823029307318716 -4 -6 0
726 1 1 0.5897 6.975445704085077 16.309880580082044 21.747110173855713 -3 -3 2
786 1 1 0.5897 3.865134172633572 14.749765431624969 16.62770530203117 7 6 3
463 1 2 -1.1794 7.375587038720642 20.001097156058 2.8766117569999836 7 1 -3
688 1 2 -1.1794 4.404478761137349 21.483084437174604 4.2203048990080205 3 -2 4
13 1 2 -1.1794 3.24962652948552 19.385924416976373 2.8225561745495225 2 -5 -2
322 1 2 -1.1794 5.602314855880601 19.18620900160063 5.090175533722156 6 1 -4
750 1 1 0.5897 4.701159027629299 19.12178000262459 1.7119971592844543 4 5 0
748 1 2 -1.1794 5.482142293326952 18.988996329643427 1.1747373729162482 4 5 0
464 1 1 0.5897 6.844411354349048 20.06488158818263 3.6703519311809836 7 1 -3
749 1 1 0.5897 6.20810403943471 19.26486327609969 1.734283044120152 4 5 0
15 1 1 0.5897 2.390361252535338 19.80554159686198 2.86509382335052 2 -5 -2
569 1 1 0.5897 7.394619564316411 21.6731402262564 2.2770737946735142 3 -2 0
323 1 1 0.5897 5.1318507974025955 19.94288115688901 4.740369542123285 6 1 -4
701 1 1 0.5897 0.4111242210523095 20.285440049569623 2.518610835923021 5 0 3
690 1 1 0.5897 3.817364666146909 21.11812998748993 3.558247402745858 3 -2 4
689 1 1 0.5897 3.843529779370271 21.635288594300846 4.980820330241762 3 -2 4
184 1 2 -1.1794 2.2853065414063014 21.90700447182256 0.6835550232841024 -2 7 3
465 1 1 0.5897 8.200714705558713 19.615004848281103 3.1704037478492157 7 1 -3
14 1 1 0.5897 3.0568789696740013 18.455684937503875 2.705261871770313 2 -5 -2
486 1 1 0.5897 0.6924978127337426 18.48742795337541 5.496441952877809 -1 2 0
700 1 2 -1.1794 0.9314896449898952 21.00855927095124 2.8686774380006517 5 0 3
702 1 1 0.5897 1.3072832334753843 21.42998856476367 2.0957567723115034 5 0 3
175 1 2 -1.1794 8.93407108808503 17.145808052811326 3.7653437063670063 -6 -3 7
110 1 1 0.5897 5.201219852528105 17.55381337285789 5.039884148295712 -2 -4 -8
509 1 1 0.5897 2.196830037088595 17.034083880152554 5.604871532709842 5 0 2
176 1 1 0.5897 9.09998814755715 17.730554652861116 4.504773599301483 -6 -3 7
725 1 1 0.5897 5.929789170397227 17.19801812871695 0.9223228352966515 -3 -3 3
18 1 1 0.5897 8.965348469221983 20.926129445791155 5.557150921033463 -4 3 1
508 1 2 -1.1794 1.478603104944796 17.053536926202373 4.972420042165438 5 0 2
357 1 1 0.5897 1.711920287748716 20.834733776705292 5.598086104468483 -1 -4 3
484 1 2 -1.1794 0.3275220342787916 19.346788153656462 5.707431799761349 -1 2 0
160 1 2 -1.1794 7.222430049328266 21.84367035785096 10.994837861954851 3 6 1
80 1 1 0.5897 2.9099649219554866 19.152166386130332 9.835794517754708 1 -1 -3
120 1 1 0.5897 8.637773825375573 18.57832639246373 6.611654518360139 5 -1 -1
683 1 1 0.5897 5.3946534432000215 20.905207651506572 7.593905380954879 3 1 -4
29 1 1 0.5897 7.074979101622932 17.32255091546353 9.788554865189123 -8 -2 4
81 1 1 0.5897 1.4577800464902644 19.479233482297758 9.560041255419092 1 -1 -3
445 1 2 -1.1794 8.178902869997142 21.168145931430097 8.418282393463224 0 -1 0
258 1 1 0.5897 4.6721888863685015 18.96055154767088 8.613026374696444 -2 -2 1
256 1 2 -1.1794 4.263036591761293 18.30493813091931 9.177808600076728 -2 -2 1
682 1 2 -1.1794 5.65915198077008 19.98589673132996 7.627436798793355 3 1 -4
162 1 1 0.5897 7.551044725843467 21.759217778588102 10.09978026809312 3 6 1
334 1 2 -1.1794 8.206550060754925 17.64400332999228 8.272095273138884 4 0 2
355 1 2 -1.1794 2.309839642283465 21.402226709150398 6.08456570527273 -1 -4 3
30 1 1 0.5897 5.680024594826661 17.66490803554403 10.266839005132383 -8 -2 4
236 1 1 0.5897 2.375796444174184 21.083335320775845 9.354342737663139 2 -1 -4
257 1 1 0.5897 3.9297340063157584 17.64182584846003 8.57331791066724 -2 -2 1
28 1 2 -1.1794 6.495220124317516 17.24847700929906 10.54658499847274 -8 -2 4
684 1 1 0.5897 6.555360274447771 20.006120116541965 7.963032710420793 3 1 -4
118 1 2 -1.1794 9.020122429745356 18.90812681636085 5.798468181167205 5 -1 -1
79 1 2 -1.1794 2.115307947690332 19.481500036620716 10.255648241918117 1 -1 -3
237 1 1 0.5897 2.6845260219118834 21.514976459294616 7.936507721679958 2 -1 -4
324 1 1 0.5897 5.806355651743094 19.427245281582834 5.993781538645533 6 1 -4
235 1 2 -1.1794 2.6831530089541937 21.83004779039208 8.840358601764674 2 -1 -4
446 1 1 0.5897 9.083241240610683 20.923870562639785 8.615117080753079 0 -1 0
447 1 1 0.5897 8.1795583879459 21.3544013037396 7.479378655504208 1 -1 0
16 1 2 -1.1794 8.580773386329314 21.74115288232006 5.879761959024082 -4 3 1
554 1 1 0.5897 4.21618441347928 18.968959071827612 14.565663698644219 -4 -10 1
128 1 1 0.5897 1.8714072431562565 18.654193714836765 11.903416608096293 1 0 -4
658 1 2 -1.1794 0.8731065099515181 20.256905186541452 13.905861295608853 -3 -1 5
660 1 1 0.5897 1.2685009660458324 19.48495742261806 13.500900998824102 -3 -1 5
641 1 1 0.5897 0.9597675506517594 21.645803143639014 12.566867670635887 6 3 -4
181 1 2 -1.1794 7.1532236701884155 19.067621627383176 15.136385867045282 -1 1 0
326 1 1 0.5897 1.310169947799852 21.964221902857155 15.024594029798516 1 -2 -1
183 1 1 0.5897 6.296905343540296 19.284962854643027 14.7680089845312 -1 1 0
129 1 1 0.5897 2.9840459914124997 18.195313485607002 12.821760708184318 1 0 -4