LAMMPS data file via write_data, version 30 Jul 2021, timestep = 3500000

1920 atoms
2 atom types
1280 bonds
1 bond types
640 angles
1 angle types

-0.07778289922305959 24.80778389922117 xlo xhi
-0.060270692320361974 24.790271692317585 ylo yhi
-0.16668304442419668 22.976683044425982 zlo zhi

Masses

1 1.008
2 15.999

Pair Coeffs # lj/cut/tip4p/long/omp

1 0 0
2 0.21084 3.1668

Bond Coeffs # harmonic/omp

1 450 0.9572

Angle Coeffs # harmonic/omp

1 55 104.52

Atoms # full

1 1 2 -1.1794 4.614482120949942 1.529467697743939 4.06677448456623 0 0 0
2 1 1 0.5897 4.71658748808916 2.312225543986835 4.608058267218596 0 0 0
3 1 1 0.5897 5.287673007502903 1.6149722407917573 3.3917798186356607 0 0 0
4 2 2 -1.1794 2.9267898392776437 1.7751762535108997 1.84200598382784 0 0 0
5 2 1 0.5897 3.1997174843774707 1.828483008231844 2.757868894758954 0 0 0
6 2 1 0.5897 1.9708484702706652 1.8102499875644953 1.8740605689302612 0 0 0
9 3 1 0.5897 4.976343358468418 4.47199855579518 3.3719467378632055 0 0 0
10 4 2 -1.1794 3.132468095954164 4.595832887851509 3.31277515166277 0 0 0
11 4 1 0.5897 2.7975018803187894 5.401431741133173 3.706379909144069 0 0 0
12 4 1 0.5897 2.636917266311785 4.502113019201057 2.4992828870547217 0 0 0
13 5 2 -1.1794 1.3300943731763646 3.134414053343959 4.859255408712905 0 0 0
14 5 1 0.5897 2.0831708246938474 3.6477572536332508 4.566935249469386 0 0 0
22 8 2 -1.1794 1.4420085486866607 4.494369711768737 1.2220022146684344 0 0 0
24 8 1 0.5897 1.2809773654220067 5.231996719577099 0.6336989003153912 0 0 0
15 5 1 0.5897 1.530538153490716 2.238593008190993 4.588245379194202 0 0 0
20 7 1 0.5897 4.128471821146142 2.876022759531305 0.9646177944372061 0 0 0
23 8 1 0.5897 0.621469930363445 4.38748618797128 1.7030300078649756 0 0 0
21 7 1 0.5897 5.614782950972011 3.0620853283871314 0.7460302278458036 0 0 0
19 7 2 -1.1794 4.763509081137582 3.229490685238613 0.3418027747882155 0 0 0
27 9 1 0.5897 4.499410401441974 5.07883715436107 0.5174840870754831 0 0 0
7 3 2 -1.1794 5.8848541647142865 4.586481012806789 3.093395446666507 0 0 0
16 6 2 -1.1794 0.25092451875957195 1.7514683891105296 1.669689834970425 0 0 0
28 10 2 -1.1794 1.707146972345998 0.35265609836333933 4.8418835208142905 0 0 0
386 129 1 0.5897 4.716043766589414 0.1432230032210784 0.02089357308942308 0 1 0
150 50 1 0.5897 1.380211831481009 5.976988936200551 5.516943059470113 0 0 0
99 33 1 0.5897 0.1852609919078495 4.143208148491301 3.91450449811214 1 0 0
29 10 1 0.5897 2.2846627316261165 -0.022835198551675262 4.177350731163323 0 0 0
25 9 2 -1.1794 4.233564017622749 5.998137627143603 0.5355874008765386 0 0 0
867 289 1 0.5897 4.254522391210193 0.463116495273285 5.312833805389624 0 1 0
387 129 1 0.5897 4.187995108517865 0.06713492773744534 1.437591691533254 0 1 0
487 163 2 -1.1794 5.794319463274287 4.770106444189254 9.402661192622803 0 0 0
496 166 2 -1.1794 0.10070591584020266 1.623635190793788 7.731977753096696 0 0 0
579 193 1 0.5897 0.22866341321620376 5.4170175587183005 9.82295517000256 1 0 0
1347 449 1 0.5897 4.625985532716636 0.10444813465483002 11.26222980086248 0 1 0
488 163 1 0.5897 5.893717181232589 4.1292067374246155 10.106576887699454 0 0 0
578 193 1 0.5897 -0.0020406358429722743 3.9218788132976727 9.87723290325701 1 0 0
493 165 2 -1.1794 1.42366827668287 2.830538119105131 10.72229116795445 0 0 0
492 164 1 0.5897 2.574631128827551 4.092583671986143 9.87427134834872 0 0 0
508 170 2 -1.1794 1.618095417433283 0.08287337434855147 10.747065330796179 0 0 0
502 168 2 -1.1794 1.4305610741214057 4.797205825446555 7.080216943659665 0 0 0
490 164 2 -1.1794 2.975174486401824 4.838467740594827 9.42779729476508 0 0 0
482 161 1 0.5897 5.146626481370151 1.3972921252620576 9.455407020420742 0 0 0
485 162 1 0.5897 3.2406360771883946 1.563168738244648 8.488124866725352 0 0 0
483 161 1 0.5897 4.48103352198117 2.265098308943407 10.50207907294874 0 0 0
491 164 1 0.5897 2.7011778329402767 4.747324793517148 8.515238495911323 0 0 0
484 162 2 -1.1794 2.82844074111924 1.7798489624812597 7.651898264825643 0 0 0
501 167 1 0.5897 4.558930269108432 4.286247549865839 6.509169212128564 0 0 0
489 163 1 0.5897 4.848812143811384 4.834913072339901 9.268881211954545 0 0 0
486 162 1 0.5897 3.0893084329683527 1.070360908128141 7.064770364369561 0 0 0
498 166 1 0.5897 1.053550666832303 1.7085536463639883 7.701015170049903 0 0 0
481 161 2 -1.1794 4.370397990027441 1.4498713761310313 10.012909060687624 0 0 0
494 165 1 0.5897 1.6199754910308302 1.9410492939939226 11.01621255796804 0 0 0
503 168 1 0.5897 0.7785410546144202 4.663955055785523 7.768132429926678 0 0 0
504 168 1 0.5897 1.491877136948401 3.949405935355748 6.640219071386881 0 0 0
500 167 1 0.5897 3.998812472612017 2.8843674090712583 6.621448533714643 0 0 0
499 167 2 -1.1794 4.720170001234003 3.3827313398892627 6.237545841657464 0 0 0
527 176 1 0.5897 5.642956767701767 0.7347480981897208 7.118250805156238 0 0 0
528 176 1 0.5897 5.654819599808612 2.2426345103638234 7.251459484751551 0 0 0
505 169 2 -1.1794 4.522058709722557 6.146988594592664 6.605424471572158 0 0 0
526 176 2 -1.1794 5.993557339202676 1.4443151422657714 7.656500738679706 0 0 0
961 321 2 -1.1794 4.439958299089288 1.6133657964506527 15.639594934885919 0 0 0
962 321 1 0.5897 5.292359061836686 1.6615802440986736 15.20694801311081 0 0 0
963 321 1 0.5897 4.538506171175493 0.9151808213406367 16.28686125898387 0 0 0
964 322 2 -1.1794 2.811493404231315 1.413028134131433 13.582015893332512 0 0 0
965 322 1 0.5897 3.2483346491886773 1.3794972450162526 14.433001058553103 0 0 0
966 322 1 0.5897 1.877911839369019 1.4321319834866257 13.792126093369957 0 0 0
970 324 2 -1.1794 3.235761298003746 4.567476011765607 15.104940395678975 0 0 0
971 324 1 0.5897 4.178609651925651 4.514359705321113 14.949058495421394 0 0 0
972 324 1 0.5897 2.9575382610504097 3.6572249367877867 15.205696540312834 0 0 0
973 325 2 -1.1794 1.294920265970211 2.8064413533963344 16.639624859245906 0 0 0
975 325 1 0.5897 0.6159860502669989 3.194936109367974 16.088054827216144 0 0 0
982 328 2 -1.1794 1.587451112349543 4.493821402260586 12.996281816564203 0 0 0
983 328 1 0.5897 1.9192473343793157 5.176340588036994 12.413014172525628 0 0 0
984 328 1 0.5897 2.163583494908921 4.529645965457236 13.759766892869289 0 0 0
981 327 1 0.5897 5.317374773551834 2.8413076608407586 12.29956597449509 0 0 0
990 330 1 0.5897 1.615913144067234 1.1115447879583766 16.543058368794835 0 0 0
980 327 1 0.5897 3.832775318673457 2.7452044499407484 12.57935669578951 0 0 0
979 327 2 -1.1794 4.470760022069878 3.1916730382425214 12.022804048556926 0 0 0
987 329 1 0.5897 4.549137503984139 4.968690224812678 12.71757261809778 0 0 0
1346 449 1 0.5897 3.9684022812946873 0.10548780229053709 12.625761517426014 0 1 0
1058 353 1 0.5897 -0.002442040941031093 4.333586790911761 14.141074216153159 1 0 0
1460 487 1 0.5897 4.850505859824222 3.0887008917788354 16.95771440791922 0 0 0
495 165 1 0.5897 1.5652692199034257 3.3757198304506417 11.496151909424247 0 0 0
988 330 2 -1.1794 1.8141083884662417 0.19900438839779477 16.333030600908597 0 0 0
1110 370 1 0.5897 2.2548493529538067 5.781939968694123 16.005840674035973 0 0 0
976 326 2 -1.1794 0.1842993505709341 1.498836527368917 13.309779892503713 0 0 0
985 329 2 -1.1794 4.552052730388615 5.888242115396685 12.451973242978546 0 0 0
1109 370 1 0.5897 0.7540437988314144 5.761986766882459 15.809097011229005 0 0 0
1008 336 1 0.5897 5.992969457607891 0.8248927957905224 12.811823014195019 0 0 0
967 323 2 -1.1794 5.915279800083154 4.491136674306372 14.841682684987038 0 0 0
1446 482 1 0.5897 3.474213628721945 2.3743945555338524 18.989363542524433 0 0 0
1457 486 1 0.5897 0.18527145107152249 1.3167473571443717 20.04760319790634 0 0 0
1539 513 1 0.5897 0.15598904040277248 5.4854325804344795 21.262726163442572 1 0 0
1462 488 2 -1.1794 1.4625215040988269 4.830910696101641 18.66331203498653 0 0 0
1441 481 2 -1.1794 4.9947032745037045 1.1410165259462262 21.534528663893017 0 0 0
1458 486 1 0.5897 0.14432496922497465 0.5833770779184174 18.723914717244686 0 0 0
1459 487 2 -1.1794 4.802497868067381 3.4369386353197573 17.84797379325596 0 0 0
1826 609 1 0.5897 3.9683780385176535 0.0082549045346645 18.378558659334512 0 1 0
1450 484 2 -1.1794 3.2462632286320257 4.762638502517904 21.06259902324185 0 0 0
1469 490 1 0.5897 1.8511974963048003 1.2185043547277863 22.070500528745466 0 0 0
1488 496 1 0.5897 5.9372866597310585 0.7672450595695864 18.737689932857997 0 0 0
1452 484 1 0.5897 3.1778500466773543 5.022717433543034 20.143999227360286 0 0 0
1461 487 1 0.5897 5.603839361391824 3.127616142197492 18.2701941668938 0 0 0
1464 488 1 0.5897 0.9365148261811078 5.16643347278292 19.389164210821313 0 0 0
974 325 1 0.5897 1.4004306606852337 3.4253302444613656 17.362105237410944 0 0 0
1453 485 2 -1.1794 1.4198488905059836 2.8453146422142637 22.051441655167203 0 0 0
1451 484 1 0.5897 4.186338708510749 4.762144390200688 21.24248372910889 0 0 0
1466 489 1 0.5897 4.5175848171536375 5.253174461238749 17.873417038412523 0 0 0
1444 482 2 -1.1794 3.285679869163483 1.5558078498690213 19.44817428883106 0 0 0
1445 482 1 0.5897 2.336976022049067 1.4525908364704907 19.374768504594112 0 0 0
1443 481 1 0.5897 4.917403738734859 1.9131033378098041 22.09491879515504 0 0 0
1463 488 1 0.5897 1.3181924837507668 5.456245618379158 17.953202693023112 0 0 0
1442 481 1 0.5897 4.346245033192605 1.2795696506161756 20.84429596366247 0 0 0
1454 485 1 0.5897 2.0756418903418745 3.383838623185326 21.608683716212877 0 0 0
1456 486 2 -1.1794 0.6567914661991077 1.22156287912492 19.220111858049734 0 0 0
1538 513 1 0.5897 0.12531598850661413 3.971940295089734 21.259420193223647 1 0 0
1590 530 1 0.5897 2.0959810340923024 6.108318149435002 22.03999440843019 0 0 0
1468 490 2 -1.1794 1.8078513492115427 0.27670057077502214 21.905441024862682 0 0 0
1455 485 1 0.5897 1.3151515158545295 3.2530325401554103 22.91105897572139 0 0 0
121 41 2 -1.1794 4.708052097644521 8.034696572886597 4.607951908688926 0 0 0
122 41 1 0.5897 3.843620220312199 8.041576783990333 4.197097494624069 0 0 0
123 41 1 0.5897 5.319627265406684 7.9346759605362465 3.878509268190803 0 0 0
124 42 2 -1.1794 2.868371865160551 7.702685870663201 2.2934641023596027 0 0 0
126 42 1 0.5897 3.298889395447435 8.426616345187655 1.8388257692530199 0 0 0
129 43 1 0.5897 4.976456313608783 10.732034572736836 3.5013410091510457 0 0 0
130 44 2 -1.1794 3.103003508486695 11.171560900465614 3.792748009832238 0 0 0
132 44 1 0.5897 2.6588275895020272 10.40195011140614 4.148444548660673 0 0 0
133 45 2 -1.1794 1.5301203234117582 9.29240050542369 5.0876007019422955 0 0 0
137 46 1 0.5897 0.905472118654021 7.739712491820868 2.2672283882635784 0 0 0
139 47 2 -1.1794 4.369556138506472 9.668804807279129 0.84979997671435 0 0 0
142 48 2 -1.1794 1.431925263372514 10.786209071901839 1.759855176704194 0 0 0
143 48 1 0.5897 2.2170865727801723 10.934882281862905 2.2866542783313157 0 0 0
144 48 1 0.5897 1.4464685284719117 11.484263774376583 1.1051481426418859 0 0 0
149 50 1 0.5897 1.569782258808927 7.356135955262492 4.922275420568678 0 0 0
125 42 1 0.5897 3.1067608034954457 6.925923418797958 1.7875599454659403 0 0 0
135 45 1 0.5897 0.6763287824532247 9.502505836473272 4.709463916627449 0 0 0
131 44 1 0.5897 2.5975437798723275 11.914303842342056 4.122854016279938 0 0 0
140 47 1 0.5897 4.407052872390865 10.625042759230404 0.8678561959229958 0 0 0
168 56 1 0.5897 5.638261296503389 8.442168425903706 1.6439536430047033 0 0 0
1574 525 1 0.5897 1.7113264589774235 9.591643211886577 0.3159033817522529 0 0 1
141 47 1 0.5897 4.385131972204158 9.445557959672337 -0.08082878972705626 0 0 0
148 50 2 -1.1794 1.6375164249774403 6.425015739124808 4.711214528160087 0 0 0
218 73 1 0.5897 0.04469312949864761 10.960940691755942 2.8925195471603335 1 0 0
166 56 2 -1.1794 5.78657855730237 7.571507326548508 2.0128422908363466 0 0 0
127 43 2 -1.1794 5.9198723388692525 10.608017511184212 3.6046378969361803 0 0 0
26 9 1 0.5897 4.880396834865797 6.42397176145068 1.0980661149935411 0 0 0
136 46 2 -1.1794 -0.04650978769415452 7.80263519956146 2.190714859820908 0 0 0
699 233 1 0.5897 -0.04548663978953696 10.897430360800548 8.464311565480374 1 0 0
621 207 1 0.5897 4.965366654348357 9.169734038699174 5.91508279637967 0 0 0
630 210 1 0.5897 1.5123295609064655 7.410685354820379 10.88906246911641 0 0 0
628 210 2 -1.1794 1.418925883583673 6.458520012440005 10.86115267847464 0 0 0
507 169 1 0.5897 4.64241391587444 6.435484615009668 5.700758319886924 0 0 0
648 216 1 0.5897 6.0321156373390385 7.0504553052993435 7.3557360083911805 0 0 0
604 202 2 -1.1794 2.7439883932289564 7.880855083396331 7.845605577886586 0 0 0
624 208 1 0.5897 1.5308392925423875 11.700242466005138 6.533634398505805 0 0 0
601 201 2 -1.1794 4.591299414267521 7.540605349038324 10.009052574166112 0 0 0
134 45 1 0.5897 1.5676194017790623 9.804883374937038 5.895120334216129 0 0 0
647 216 1 0.5897 5.953552487021539 7.526396180569213 8.790646965135778 0 0 0
603 201 1 0.5897 3.9170767099523762 7.442415368026139 9.33682240621545 0 0 0
614 205 1 0.5897 2.335658084878401 9.589903644072416 10.054857952894924 0 0 0
610 204 2 -1.1794 3.3933444554067513 10.824157343428624 9.214795246222087 0 0 0
626 209 1 0.5897 4.35772240671728 11.369787808405409 6.210699012567731 0 0 0
613 205 2 -1.1794 1.6286251630353554 9.139930645746496 10.517206925612816 0 0 0
619 207 2 -1.1794 5.039528476856614 9.549838796817365 6.790389188726137 0 0 0
615 205 1 0.5897 0.8302971318315872 9.43206404791636 10.077399149313681 0 0 0
620 207 1 0.5897 5.362987684460083 8.833426247155813 7.336509977574266 0 0 0
623 208 1 0.5897 2.2598555914839062 11.341765689638795 7.811010984873912 0 0 0
698 233 1 0.5897 0.14144821239969577 11.507594981336961 9.837049405994703 1 0 0
622 208 2 -1.1794 1.582536919226576 11.027273873631136 7.2122886381976645 0 0 0
602 201 1 0.5897 4.508220524821976 6.754599415108993 10.548882639337906 0 0 0
606 202 1 0.5897 1.8359564518317022 7.922518516463515 8.145325410771694 0 0 0
605 202 1 0.5897 3.0889809531479915 8.759793186292105 8.002331706482769 0 0 0
611 204 1 0.5897 4.341112324651127 10.957532171491586 9.209421921153096 0 0 0
612 204 1 0.5897 3.0443904720289097 11.599539106677858 9.654264390084085 0 0 0
607 203 2 -1.1794 5.961539111997455 11.070274820849452 9.279270084891742 0 0 0
616 206 2 -1.1794 0.0971745046017427 7.847855143092626 8.087067886672884 0 0 0
506 169 1 0.5897 3.747880763506316 6.621719000033387 6.907714680259056 0 0 0
1101 367 1 0.5897 4.96588244552308 9.08619851406991 11.119647629326623 0 0 0
625 209 2 -1.1794 4.4859529131473925 12.2951781402226 6.418864582257023 0 0 0
618 206 1 0.5897 0.03702040856271438 7.048646605927056 7.563832525838625 0 0 0
750 250 1 0.5897 1.4639684738322878 11.935479763178966 11.363916084837301 0 0 0
627 209 1 0.5897 5.26153535225214 12.309784664674753 6.97954389483227 0 0 0
629 210 1 0.5897 2.0213807035912215 6.17838732252779 10.172169646415734 0 0 0
1081 361 2 -1.1794 4.756368384606995 7.649752492287305 15.732592498484689 0 0 0
1082 361 1 0.5897 4.92241487978917 8.451639731493168 16.228107310062892 0 0 0
1083 361 1 0.5897 4.51223816440425 7.004130840174272 16.395689907913262 0 0 0
1084 362 2 -1.1794 3.095675577385811 7.904154180715685 13.484932375820133 0 0 0
1086 362 1 0.5897 3.505052301575868 8.458262395665797 12.820480780891337 0 0 0
1089 363 1 0.5897 5.078422442884259 10.760587805937245 14.683471094199316 0 0 0
1090 364 2 -1.1794 3.19849345921937 10.859495617613776 14.919144060374867 0 0 0
1092 364 1 0.5897 2.986087893016368 10.128599227329845 15.499492710493884 0 0 0
1097 366 1 0.5897 1.05740533303696 7.902446504241335 13.505008540094234 0 0 0
1099 367 2 -1.1794 4.850854430105213 9.501165394043323 11.974462530652806 0 0 0
1102 368 2 -1.1794 1.5052109585389253 10.686311901508207 12.74809268547016 0 0 0
1103 368 1 0.5897 1.5180363189584842 10.107934814913067 11.985566455487746 0 0 0
1104 368 1 0.5897 2.190380955991198 10.342823983721763 13.321385729987735 0 0 0
1085 362 1 0.5897 3.7184697874840844 7.901006177185727 14.211728855581674 0 0 0
1100 367 1 0.5897 5.492064129927469 9.06956528757582 12.538979516416521 0 0 0
1094 365 1 0.5897 1.3059362051341457 8.17793864317727 16.21087615470766 0 0 0
1091 364 1 0.5897 2.6920695267498393 11.594805276843074 15.264072820503575 0 0 0
1095 365 1 0.5897 0.6870693061091965 9.535866929403168 15.95665343696665 0 0 0
1093 365 2 -1.1794 1.4123773291886785 9.107773125046467 16.411367126748242 0 0 0
1107 369 1 0.5897 4.740887782673183 11.305697615266194 12.001618523478053 0 0 0
1179 393 1 0.5897 0.38022315852728494 10.88657165483321 14.165461756569087 1 0 0
986 329 1 0.5897 3.815454927566123 6.276648683754421 12.923846674416856 0 0 0
1105 369 2 -1.1794 4.628550964104536 12.231563678004683 12.216737703187759 0 0 0
1096 366 2 -1.1794 0.10456714070429482 7.886473722523387 13.415988762291752 0 0 0
1108 370 2 -1.1794 1.463675970132937 6.2964339994753145 16.165319915017506 0 0 0
1178 393 1 0.5897 0.14256945050269962 11.646224022709132 15.453138347407736 1 0 0
1087 363 2 -1.1794 5.960194932314419 10.425359196123713 14.845296368983053 0 0 0
1128 376 1 0.5897 5.8917559678143645 6.99432937501906 13.050246287681293 0 0 0
1127 376 1 0.5897 5.937661799992052 7.967111339424447 14.209226139045196 0 0 0
1709 570 1 0.5897 0.3905216910506598 12.215290514156157 22.347529333809895 0 0 0
1589 530 1 0.5897 1.3277298824496464 7.269140095762751 22.634869488623053 0 0 0
1564 522 2 -1.1794 2.864467572779893 7.643280189527307 19.758061199347082 0 0 0
1571 524 1 0.5897 2.7082414054514845 11.043525362954183 20.313515842159493 0 0 0
1588 530 2 -1.1794 1.2475809568958325 6.340494570946847 22.417358509601875 0 0 0
1568 523 1 0.5897 6.025158387030963 10.809656378127213 19.874558321116954 0 0 0
1563 521 1 0.5897 4.006356613583215 8.080153621242363 20.959683977546685 0 0 0
1586 529 1 0.5897 5.250112211175268 12.275482923776963 18.331954146486115 0 0 0
1582 528 2 -1.1794 1.6184185939733489 10.56580306869643 18.83619118180136 0 0 0
1581 527 1 0.5897 4.970220788030202 9.084785100618216 18.53260110641224 0 0 0
1565 522 1 0.5897 1.9171229324902053 7.7543194380796185 19.678756176440064 0 0 0
1710 570 1 0.5897 1.8839501817692041 12.037945494881345 22.175055779618955 0 0 0
1567 523 2 -1.1794 5.631822167356371 10.728388964487161 20.743360976505137 0 0 0
1566 522 1 0.5897 3.1283680202288475 7.236845521797772 18.932651460019205 0 0 0
1658 553 1 0.5897 0.2015386258327601 10.232093878701033 21.39821303666421 1 0 0
1587 529 1 0.5897 4.530743850739954 11.047262008463182 17.816612091315186 0 0 0
1576 526 2 -1.1794 0.09150332242180648 7.86619963827983 19.626754300834516 0 0 0
1579 527 2 -1.1794 4.335376774691397 9.470665729083807 17.929128655458907 0 0 0
1584 528 1 0.5897 1.5505927425783343 9.939263113192144 18.115790040629904 0 0 0
1573 525 2 -1.1794 1.527428546827036 9.249194155193486 22.584600359956404 0 0 0
1583 528 1 0.5897 0.7407418426986802 10.589252577884356 19.217276140648277 0 0 0
1570 524 2 -1.1794 3.030596972738436 10.999502126540692 21.21367617504897 0 0 0
1562 521 1 0.5897 4.517051940887285 7.4305719490872955 22.22810240541624 0 0 0
1575 525 1 0.5897 2.147230146769385 9.703316314781716 22.01386860156836 0 0 0
1572 524 1 0.5897 3.9821321281184616 10.945843065520885 21.125443552698787 0 0 0
1580 527 1 0.5897 3.5271069256288277 9.532017451428388 18.438086138374555 0 0 0
1561 521 2 -1.1794 4.6332578996650176 8.201396232352884 21.672713195276945 0 0 0
1585 529 2 -1.1794 4.644625409777044 11.983029551349265 17.650799646140218 0 0 0
1467 489 1 0.5897 5.221675748986488 6.525239286140374 18.294969828593334 0 0 0
1608 536 1 0.5897 5.769027079388391 7.988295648591338 20.282254806737484 0 0 0
1465 489 2 -1.1794 4.39475256589853 6.200122369675476 17.93916466363956 0 0 0
1569 523 1 0.5897 6.104132879308625 11.363958538663573 21.281039550318795 0 0 0
241 81 2 -1.1794 4.607384948538428 14.202496948174865 4.408999444920151 0 0 0
242 81 1 0.5897 4.549588948013555 13.510195029249177 5.067410969659634 0 0 0
243 81 1 0.5897 3.884077402832126 14.023372725686963 3.8082938742567523 0 0 0
244 82 2 -1.1794 2.6290571650894985 13.931099534364701 2.3269481546397137 0 0 0
245 82 1 0.5897 1.680393830718483 13.806615680008642 2.352008512523886 0 0 0
246 82 1 0.5897 2.745237465156853 14.827297267619851 2.0115871476426563 0 0 0
250 84 2 -1.1794 3.083498305984349 17.099340503313677 3.631915890478904 0 0 0
251 84 1 0.5897 2.809305445587271 17.069992156044606 2.7153465767804574 0 0 0
252 84 1 0.5897 4.010199955721736 16.8606887198165 3.6129167766650463 0 0 0
253 85 2 -1.1794 1.2713197494969561 15.619716828858218 4.9524885016767115 0 0 0
255 85 1 0.5897 2.080864212281003 15.980548643707294 4.591194841583506 0 0 0
259 87 2 -1.1794 4.318271207172311 15.648703619136674 0.768067197344299 0 0 0
262 88 2 -1.1794 1.591659902524549 16.74218889474496 1.3525651264477263 0 0 0
263 88 1 0.5897 1.8674627903905217 16.072515626055075 0.7267868779108919 0 0 0
264 88 1 0.5897 1.5555097969581066 17.54952075574701 0.8396990936203672 0 0 0
254 85 1 0.5897 0.5778694550043659 16.160068455704426 4.574006569466556 0 0 0
269 90 1 0.5897 1.4984006744186147 13.93387768386949 5.024591783905456 0 0 0
260 87 1 0.5897 4.238231321346098 16.581069425525282 0.5670567707445259 0 0 0
338 113 1 0.5897 0.011152224832228982 17.013025981347276 2.768625402767455 1 0 0
146 49 1 0.5897 5.211025514981196 12.91308052070807 1.280516716230011 0 0 0
247 83 2 -1.1794 5.835586855207373 17.133259205032488 3.4316002980309626 0 0 0
147 49 1 0.5897 3.7082668466512847 12.734792961498673 1.242304686444846 0 0 0
288 96 1 0.5897 5.4831379250886965 14.684618103464766 1.6321223543798027 0 0 0
339 113 1 0.5897 0.12387526914070174 17.91131800604615 3.981891114850635 1 0 0
286 96 2 -1.1794 6.121022510322262 14.137259002220011 2.0899533723998114 0 0 0
287 96 1 0.5897 5.836683713511238 14.150602293932469 3.003796379567424 0 0 0
270 90 1 0.5897 0.6685763295891587 12.740443136422277 4.6018616770808185 0 0 0
261 87 1 0.5897 4.310699430036196 15.217491773979038 -0.08641129350430336 0 0 0
265 89 2 -1.1794 4.249577776358185 18.4334879998091 0.5980289883937605 0 0 0
145 49 2 -1.1794 4.51534975747183 12.450366925791602 0.813565768930242 0 0 0
268 90 2 -1.1794 1.4491273737690646 12.981046039979539 5.100812085967732 0 0 0
389 130 1 0.5897 2.177070864677886 18.337319364446778 4.966017110749781 0 0 0
736 246 2 -1.1794 0.16978412116804104 14.129598257430414 7.772389606854164 0 0 0
727 243 2 -1.1794 5.835355557597861 16.921242576804815 9.1582857929335 0 0 0
721 241 2 -1.1794 4.191620117166354 13.884786168629633 9.926372717724275 0 0 0
870 290 1 0.5897 2.192879778434896 18.42502115409098 10.139795706681808 0 0 0
869 290 1 0.5897 0.756389837433831 18.060527542356144 10.448297015552459 0 0 0
745 249 2 -1.1794 4.527421781683368 18.520114415374735 6.283380445330099 0 0 0
740 247 1 0.5897 4.962250500971943 15.643688786197806 5.7491678624799984 0 0 0
737 246 1 0.5897 1.122965137224278 14.054837799040108 7.728364411194686 0 0 0
739 247 2 -1.1794 4.712974273108582 15.912158738317721 6.633429924324185 0 0 0
741 247 1 0.5897 4.653309800874336 16.866292888011394 6.58667478668021 0 0 0
733 245 2 -1.1794 1.3162784509505547 15.128186648447423 10.814297796120899 0 0 0
725 242 1 0.5897 3.262358386771004 13.325573829853909 7.250767817204888 0 0 0
730 244 2 -1.1794 3.0489190706237186 16.976494892676794 9.289780926475066 0 0 0
732 244 1 0.5897 2.8622323123377806 16.234157671095748 9.864420369207808 0 0 0
744 248 1 0.5897 1.1082487451983125 16.564129603244528 6.514023845296649 0 0 0
743 248 1 0.5897 1.1392444842878957 17.978488534345164 7.0527649631425575 0 0 0
749 250 1 0.5897 1.4430701306777076 13.312402627679065 10.735215149104656 0 0 0
728 243 1 0.5897 4.895636704773421 17.034682416627202 9.300209678279304 0 0 0
742 248 2 -1.1794 1.1667692871915962 17.062509991988314 7.32909071818022 0 0 0
723 241 1 0.5897 5.044814508692606 13.758824713855173 9.511294516686908 0 0 0
735 245 1 0.5897 0.6933438391392419 15.68009652356074 10.341580919377725 0 0 0
724 242 2 -1.1794 2.8300461786567754 14.134592775035895 7.524090427679173 0 0 0
731 244 1 0.5897 2.3180692803773573 16.99143996763947 8.671924086938354 0 0 0
722 241 1 0.5897 3.587855285307903 14.023041474298537 9.196667693138032 0 0 0
726 242 1 0.5897 3.327955868789173 14.829825851707469 7.094150780148219 0 0 0
1106 369 1 0.5897 4.493426928323434 12.659651068651826 11.371386997527082 0 0 0
738 246 1 0.5897 -0.026037639127488944 14.153566804636835 8.708987878600777 0 0 0
748 250 2 -1.1794 1.4955388556448608 12.381767490541469 10.51776868274531 0 0 0
1221 407 1 0.5897 4.507244174676529 15.147514126067207 11.391428354459705 0 0 0
1201 401 2 -1.1794 4.976804106448031 13.84264315468967 15.673910987293874 0 0 0
1203 401 1 0.5897 5.086775540985794 13.024650131790457 16.15859170746271 0 0 0
1204 402 2 -1.1794 3.0712951859165 14.004158181060745 13.82749322766322 0 0 0
1205 402 1 0.5897 3.6227792428880634 13.89497011017719 14.602135124548402 0 0 0
1206 402 1 0.5897 3.4455020688478624 13.406436981383832 13.180313952563537 0 0 0
1210 404 2 -1.1794 3.1966349593812966 17.06025282180274 15.318423771055032 0 0 0
1212 404 1 0.5897 4.1394612865887686 17.220863938212865 15.35536235705516 0 0 0
1213 405 2 -1.1794 1.3741026373468381 15.153151929988827 16.161833776117106 0 0 0
1214 405 1 0.5897 0.6316131506357837 15.749900593713091 16.068581335635933 0 0 0
1215 405 1 0.5897 2.112994176125049 15.628255946416074 15.781815566470996 0 0 0
1218 406 1 0.5897 1.142504019125212 13.909238091972396 13.709390963424198 0 0 0
1222 408 2 -1.1794 1.9533271656678521 16.843065632183475 12.759896366453136 0 0 0
1223 408 1 0.5897 1.9627614743299873 17.560984801249575 12.126941617386741 0 0 0
1224 408 1 0.5897 2.4959712942579904 17.154576039564805 13.48421293465584 0 0 0
1229 410 1 0.5897 1.3800200881104434 13.443170498556599 16.091059261944174 0 0 0
1211 404 1 0.5897 2.8019428140478633 17.876954365845 15.62392921542418 0 0 0
1202 401 1 0.5897 5.588791092802056 13.771703379471663 14.941412146607687 0 0 0
1219 407 2 -1.1794 4.7190223566127125 15.596596227013128 12.209728832408048 0 0 0
1220 407 1 0.5897 4.134062434357245 15.203678998383205 12.85746530092065 0 0 0
1227 409 1 0.5897 4.681389846760509 17.385880348761916 12.246789268321198 0 0 0
1216 406 2 -1.1794 0.1878276618479478 13.880484203866954 13.647364669262284 0 0 0
1225 409 2 -1.1794 4.559934196888317 18.33401241281113 12.295877849067955 0 0 0
1228 410 2 -1.1794 1.434945252506373 12.503620398608836 16.265270591489312 0 0 0
734 245 1 0.5897 1.4771989204283327 15.595633170196987 11.63389009594249 0 0 0
1217 406 1 0.5897 -0.044289038290768246 14.666354718378178 13.15272829130172 0 0 0
1248 416 1 0.5897 5.95567719804039 13.135172972496836 13.006988451652052 0 0 0
1700 567 1 0.5897 4.873387628689788 15.061688913820415 17.10425130171836 0 0 0
1298 433 1 0.5897 -0.007444316613273452 17.03431451901018 14.082226412893457 1 0 0
1207 403 2 -1.1794 5.948814848171177 16.911519208647203 15.09733264677079 0 0 0
1350 450 1 0.5897 0.6813903476310743 18.306740827754822 15.915903633035342 0 0 0
1230 410 1 0.5897 1.6839999941943242 12.4447232227601 17.187571390992865 0 0 0
1247 416 1 0.5897 6.032568958369416 14.643034886199281 12.897229626323934 0 0 0
1697 566 1 0.5897 1.257054134921422 13.4344231940726 19.682337949049284 0 0 0
1698 566 1 0.5897 0.20204971049742554 14.236127720024758 18.95034198544118 0 0 0
1830 610 1 0.5897 2.0242124072246033 18.418210095439512 21.656864089009748 0 0 0
1728 576 1 0.5897 5.903376959912054 14.150400246998155 18.851338631036274 0 0 0
1779 593 1 0.5897 0.09598618903658526 17.721947640321712 21.47713096129361 1 0 0
1696 566 2 -1.1794 0.33125109529249913 13.423765129594978 19.4397287541254 0 0 0
1682 561 1 0.5897 5.458590233266524 13.760492161373763 21.229486586396945 0 0 0
1687 563 2 -1.1794 5.814946122889678 16.992981704598385 20.898277926093375 0 0 0
1689 563 1 0.5897 4.869004207228919 16.85126694815171 20.863650326439284 0 0 0
1691 564 1 0.5897 2.744868217379353 16.233706620032855 21.178969250957252 0 0 0
1690 564 2 -1.1794 3.1427060515822927 16.897537104904053 20.615788872995818 0 0 0
1686 562 1 0.5897 3.5133346235571534 13.627225178695442 20.231635491877256 0 0 0
1701 567 1 0.5897 3.799616181674667 15.194365501535955 18.163024074358113 0 0 0
1694 565 1 0.5897 0.8412361290380992 15.45792304129412 21.80744510952943 0 0 0
1685 562 1 0.5897 3.4517824667523778 13.145804546192695 18.79772049767181 0 0 0
1681 561 2 -1.1794 4.624113832398924 13.894605963559565 21.678678808976475 0 0 0
1692 564 1 0.5897 2.612455422168359 16.88540053728485 19.819033011007996 0 0 0
1699 567 2 -1.1794 4.655833113107401 15.536543806312885 17.906320620271444 0 0 0
1693 565 2 -1.1794 1.6468096710764095 15.066340058428835 22.144807415702942 0 0 0
1702 568 2 -1.1794 1.512582486344781 16.922475244497505 18.508196440999196 0 0 0
1703 568 1 0.5897 1.542295438916008 16.088553209418965 18.039329532408132 0 0 0
1704 568 1 0.5897 1.4013449180636164 17.579984203866236 17.821576579923317 0 0 0
1683 561 1 0.5897 4.707559277673459 13.39876008700763 22.493117292443074 0 0 0
1684 562 2 -1.1794 3.098144475131466 13.81032151196126 19.388887166530736 0 0 0
1695 565 1 0.5897 1.407242795643386 14.162301864359872 22.34837349913427 0 0 0
1707 569 1 0.5897 4.853300326795765 17.32294101074012 17.877047509366133 0 0 0
1705 569 2 -1.1794 4.751595775735063 18.269532340136408 17.9757438078543 0 0 0
1708 570 2 -1.1794 1.228551775921121 12.39917915390715 22.771776328392967 0 0 0
1778 593 1 0.5897 0.0878160890833577 17.161021668740528 20.0710897195266 1 0 0
1688 563 1 0.5897 6.114401821319764 16.833527941113903 20.00326712850661 0 0 0
361 121 2 -1.1794 4.391131519917062 20.10027520504516 4.021505472500933 0 0 0
362 121 1 0.5897 3.704821233665235 20.141547908431864 3.355630637845632 0 0 0
364 122 2 -1.1794 2.6717537227590022 20.0406597251723 2.022962749563163 0 0 0
365 122 1 0.5897 3.0514403602117977 20.740569904507296 1.4918429597861451 0 0 0
366 122 1 0.5897 1.7624906654449255 19.983196521511314 1.7296552378214878 0 0 0
370 124 2 -1.1794 3.289207112500303 23.36794603710921 3.237728705239901 0 0 0
371 124 1 0.5897 4.208249462305282 23.100683498871565 3.233087966705148 0 0 0