LAMMPS data file via write_data, version 15 Apr 2020, timestep = 275000

2016 atoms
2 atom types
1344 bonds
1 bond types
672 angles
1 angle types

-3.2741924141388634e+00 1.4817791585861137e+01 xlo xhi
-1.0766475148036094e+00 4.6227035514803987e+01 ylo yhi
0.0 1.94194727e+01 zlo zhi
-1.34119670e-01 -6.55661814e+00 1.00033610e-01 xy xz yz

Masses

1 1.008
2 15.999

Atoms # full

97 33 2 -1.1794000000000000e+00 3.5590833915755011e+00 -4.1076895392936041e-01 5.4848864178539465e+00 0 0 0
249 83 1 5.8970000000000000e-01 3.4783125939455024e+00 1.1870914471070129e+00 4.1934926479543249e+00 -1 0 -1
555 185 1 5.8970000000000000e-01 -2.4620086930923706e+00 5.5259605930204145e+00 7.4101621184948190e+00 0 0 0
308 103 1 5.8970000000000000e-01 2.5968008058079981e+00 6.7136693056750367e+00 2.8068446301517778e+00 0 0 0
71 24 1 5.8970000000000000e-01 3.4758458750656414e+00 -2.6207236255967884e-02 1.6183287384523104e+00 0 0 0
537 179 1 5.8970000000000000e-01 1.9031412115332405e+00 7.0542868865828847e+00 2.3144438787224542e-01 0 0 1
161 54 1 5.8970000000000000e-01 1.1313901024507775e+00 1.1617864486533129e+00 1.7639319715798937e-01 1 0 0
247 83 2 -1.1794000000000000e+00 3.9410778854264219e+00 1.7696724263369181e+00 3.5912726717174230e+00 -1 0 -1
983 328 1 5.8970000000000000e-01 1.1643220951830633e+00 1.7148987946212972e+00 6.1483084554768785e+00 0 0 0
125 42 1 5.8970000000000000e-01 -1.2824736821817293e+00 2.4500899230833650e+00 5.9409089725253406e+00 1 0 0
53 18 1 5.8970000000000000e-01 -9.2559063333486791e-02 7.5533454633692019e+00 4.0720719653034667e+00 0 0 -1
982 328 2 -1.1794000000000000e+00 1.5980659298437276e+00 1.3923662430620138e+00 6.9382852010040157e+00 0 0 0
173 58 1 5.8970000000000000e-01 -1.5648692535057651e+00 2.4844778457648191e+00 8.5280655068590718e+00 1 0 -1
43 15 2 -1.1794000000000000e+00 -4.0998025944828873e+00 3.5551675521750239e+00 5.0642010588880373e+00 1 0 0
109 37 2 -1.1794000000000000e+00 -1.5760680415526693e+00 4.1532921343096953e+00 2.6187795487141279e+00 1 0 0
467 156 1 5.8970000000000000e-01 -6.0641101060987390e-01 8.0855574015464864e+00 1.3126136068374668e+00 1 0 0
609 203 1 5.8970000000000000e-01 4.4134153971581167e+00 7.3326072895086458e+00 2.4818641894884821e+00 0 0 0
686 229 1 5.8970000000000000e-01 -2.7943306847394842e+00 -5.8852475997385423e-01 3.4814694174786132e-01 1 0 1
626 209 1 5.8970000000000000e-01 9.0800684019041844e-02 1.4893049979979980e-01 9.1226428657571539e+00 0 0 0
126 42 1 5.8970000000000000e-01 -2.6569004396731106e+00 2.9503280864684092e+00 6.3315319791549500e+00 1 0 0
240 80 1 5.8970000000000000e-01 -3.0378686060270845e+00 7.4481515972391161e+00 6.1950903703964615e+00 0 0 0
627 209 1 5.8970000000000000e-01 -1.1372635223092991e+00 -3.0398035181850880e-01 8.3619673195310860e+00 0 0 0
162 54 1 5.8970000000000000e-01 1.2056098338415191e+00 2.6662506269702981e+00 2.5462790695109982e-02 1 0 0
105 35 1 5.8970000000000000e-01 1.8074338434807573e+00 4.7800830189309993e+00 6.7846890113776546e+00 1 0 0
145 49 2 -1.1794000000000000e+00 -3.3392413241299019e+00 4.7513385698051458e+00 8.7992509812095303e+00 1 0 0
104 35 1 5.8970000000000000e-01 2.6547471262703302e+00 4.8220889086638383e+00 5.5308174612501197e+00 1 0 0
213 71 1 5.8970000000000000e-01 -8.3153252997213642e-02 1.4550512749390851e+00 4.2353255989591929e+00 0 0 0
201 67 1 5.8970000000000000e-01 -4.9308799102551966e+00 6.8357721919211620e+00 5.0584053532791478e+00 0 0 -1
671 224 1 5.8970000000000000e-01 2.2939034345071634e+00 3.4686135854057230e+00 9.1240134949514911e+00 0 0 0
140 47 1 5.8970000000000000e-01 4.5155244617337004e-01 5.5403886685812083e+00 4.8849217266366001e+00 1 0 0
350 117 1 5.8970000000000000e-01 5.2291896661673727e+00 1.1924036126429871e+00 3.6733643506358898e-01 1 0 0
604 202 2 -1.1794000000000000e+00 1.7991435163853522e+00 3.6734381240685057e+00 3.0127742297465914e+00 1 0 0
103 35 2 -1.1794000000000000e+00 1.8951169834510400e+00 5.2313884561779664e+00 5.9451327441142681e+00 1 0 0
679 227 2 -1.1794000000000000e+00 -5.2101422313844035e+00 2.8245106821075781e+00 8.2416731927542113e+00 0 0 0
890 297 1 5.8970000000000000e-01 -9.8842277201541473e-01 5.7066034907284031e+00 1.7974206551570290e-01 0 0 0
625 209 2 -1.1794000000000000e+00 -1.8273987098636518e-01 -2.6318666737987323e-01 8.3031578776522039e+00 0 0 0
833 278 1 5.8970000000000000e-01 1.6933049245057563e+00 -2.6094019326293105e-01 3.0163323046627171e+00 0 0 1
147 49 1 5.8970000000000000e-01 -2.6211600681159051e+00 4.2278396814695700e+00 9.1549454389426028e+00 1 0 0
144 48 1 5.8970000000000000e-01 -5.9973009901868544e+00 -3.4708525117714717e-01 9.1119468235647680e+00 1 0 0
680 227 1 5.8970000000000000e-01 -5.5314489189571132e+00 2.3136498752065182e+00 8.9846359901888757e+00 0 0 0
458 153 1 5.8970000000000000e-01 -2.4813696408341634e+00 8.8530388315626962e-01 2.1326865019974370e+00 0 0 0
239 80 1 5.8970000000000000e-01 -3.3941216252112634e+00 7.9457866560873329e+00 4.8104168985556663e+00 0 0 0
798 266 1 5.8970000000000000e-01 1.0423397161936661e+00 7.6711849270396257e+00 8.5180916761617897e+00 1 0 0
687 229 1 5.8970000000000000e-01 -1.4956344547654181e+00 -7.4240560320252669e-01 1.1107779298825367e+00 1 0 1
834 278 1 5.8970000000000000e-01 1.1090409440327753e+00 9.8120623029200627e-01 2.3779828863247312e+00 0 0 1
643 215 2 -1.1794000000000000e+00 -2.9181490929561118e+00 -5.4301976208963365e-01 8.8869764871612666e+00 0 0 0
540 180 1 5.8970000000000000e-01 -5.4844767611874383e+00 6.9035321259514291e+00 8.2037775308809859e+00 0 0 0
691 231 2 -1.1794000000000000e+00 -2.9921613597215146e+00 7.7443147729056321e+00 3.0607399640507813e+00 -1 0 0
184 62 2 -1.1794000000000000e+00 -2.4962396966886589e+00 -1.0902865217078146e-01 5.4482464622833797e+00 -1 0 -1
605 202 1 5.8970000000000000e-01 2.6826986542106419e+00 3.4141767782553778e+00 3.2741949021457173e+00 1 0 0
110 37 1 5.8970000000000000e-01 -1.1781987138633592e+00 4.7133777601000268e+00 3.2852714730881125e+00 1 0 0
186 62 1 5.8970000000000000e-01 -2.2659398851285437e+00 6.7904303439818092e-01 5.9402728547374046e+00 -1 0 -1
124 42 2 -1.1794000000000000e+00 -1.9138919958390337e+00 2.4442978016689425e+00 6.6602901106898180e+00 1 0 0
468 156 1 5.8970000000000000e-01 5.4408358615386780e-02 6.8562180207714913e+00 1.8989774708412912e+00 1 0 0
554 185 1 5.8970000000000000e-01 -1.2475616678446972e+00 6.4295652547554099e+00 7.3890012706563493e+00 0 0 0
612 204 1 5.8970000000000000e-01 2.8873863431153914e+00 6.7132852624874744e+00 6.5654047596339593e+00 0 0 -1
44 15 1 5.8970000000000000e-01 -4.6622036086882535e+00 4.3219923495005190e+00 4.9552653765641219e+00 1 0 0
466 156 2 -1.1794000000000000e+00 -7.5664478114280131e-01 7.1568696300508652e+00 1.4890574055784751e+00 1 0 0
160 54 2 -1.1794000000000000e+00 1.2129709675875966e+00 1.9701578263180370e+00 6.8242118941733132e-01 1 0 0
685 229 2 -1.1794000000000000e+00 -2.0112890686570815e+00 -1.0676216086719953e-01 6.1453580277507935e-01 1 0 1
212 71 1 5.8970000000000000e-01 4.3632162245746825e-01 2.8719640965208675e+00 4.1160371470512249e+00 0 0 0
681 227 1 5.8970000000000000e-01 -4.6413456931343031e+00 3.4869062974523803e+00 8.6339713063911514e+00 0 0 0
984 328 1 5.8970000000000000e-01 9.2915866722054619e-01 8.7281352698990688e-01 7.3841984192209207e+00 0 0 0
139 47 2 -1.1794000000000000e+00 -4.3613066362867886e-01 5.6686013170578571e+00 4.5505401560471999e+00 1 0 0
672 224 1 5.8970000000000000e-01 1.8692503445289890e+00 2.8675028792904822e+00 7.8010604865359454e+00 0 0 0
693 231 1 5.8970000000000000e-01 -2.2041570338599263e+00 7.6340438963652399e+00 2.5286484774188387e+00 -1 0 0
493 165 2 -1.1794000000000000e+00 -4.0113509187427461e+00 7.8621950843098292e+00 8.9216969253286660e+00 1 0 0
307 103 2 -1.1794000000000000e+00 2.0626026040402099e+00 6.3274394552848516e+00 2.1128120407565860e+00 0 0 0
692 231 1 5.8970000000000000e-01 -3.5120462684092333e+00 6.9600692242511712e+00 2.8850777742857097e+00 -1 0 0
457 153 2 -1.1794000000000000e+00 -2.8008707522212259e+00 1.3941096435956630e+00 2.8778363258413044e+00 0 0 0
141 47 1 5.8970000000000000e-01 -9.8514225383044995e-01 5.7022647449410790e+00 5.3339225001543973e+00 1 0 0
211 71 2 -1.1794000000000000e+00 3.0091722382796136e-02 2.2642075204578962e+00 4.7339441823102426e+00 0 0 0
185 62 1 5.8970000000000000e-01 -3.3150836216511719e+00 -4.0804540847400195e-01 5.8436062567991351e+00 -1 0 -1
70 24 2 -1.1794000000000000e+00 3.1671165079882373e+00 -8.5200967744860301e-01 1.9910367100897561e+00 0 0 0
832 278 2 -1.1794000000000000e+00 9.0451373828634296e-01 2.8097927207461870e-01 2.9976966038921695e+00 0 0 1
171 57 1 5.8970000000000000e-01 -3.5830767630025973e+00 4.7883942155432209e+00 2.7097739505577940e+00 2 0 0
309 103 1 5.8970000000000000e-01 1.8915302723766456e+00 5.4340456222854510e+00 2.4107153201504916e+00 0 0 0
459 153 1 5.8970000000000000e-01 -2.6470486808518405e+00 8.3113438736509326e-01 3.6365212331503400e+00 0 0 0
111 37 1 5.8970000000000000e-01 -1.7950510080177529e+00 3.3456985573595364e+00 3.0835560466322862e+00 1 0 0
607 203 2 -1.1794000000000000e+00 3.9994123742725658e+00 7.9411234391478436e+00 3.0938364318535547e+00 0 0 0
606 202 1 5.8970000000000000e-01 1.5936465503811863e+00 3.1082911860991396e+00 2.2680698765302085e+00 1 0 0
45 15 1 5.8970000000000000e-01 -4.6882753103772714e+00 2.8083823622877557e+00 4.9537580188886059e+00 1 0 0
553 185 2 -1.1794000000000000e+00 -1.9779183828606981e+00 6.1303147154306670e+00 6.8474735388819967e+00 0 0 0
351 117 1 5.8970000000000000e-01 4.1721406460676596e+00 2.1901381615162085e+00 -5.5731785062570649e-02 1 0 0
670 224 2 -1.1794000000000000e+00 2.2855987014876411e+00 3.6404319390778990e+00 8.1823938322519592e+00 0 0 0
172 58 2 -1.1794000000000000e+00 -1.3752851946493174e+00 2.8387375174087239e+00 9.3968477511736221e+00 1 0 -1
796 266 2 -1.1794000000000000e+00 2.5058296011982761e-01 7.1939518547905354e+00 8.7662559178318702e+00 1 0 0
644 215 1 5.8970000000000000e-01 -3.5512693284551595e+00 6.2089692843285436e-02 9.2732553195869940e+00 0 0 0
77 26 1 5.8970000000000000e-01 4.3233772876869594e+00 4.8432369413642551e+00 6.4610801822523078e-01 0 0 0
349 117 2 -1.1794000000000000e+00 4.3547241987272836e+00 1.2513323303409516e+00 -1.7462016644588609e-02 1 0 0
238 80 2 -1.1794000000000000e+00 -3.6403437526951832e+00 8.0298594087110740e+00 5.7315792836609196e+00 0 0 0
891 297 1 5.8970000000000000e-01 -1.3052259480676136e+00 4.3792720087260397e+00 8.3517580345472542e-01 0 0 0
146 49 1 5.8970000000000000e-01 -3.6032099608397625e+00 5.3196461824660073e+00 9.5228237046944564e+00 1 0 0
797 266 1 5.8970000000000000e-01 -1.7178940137786772e-01 7.7525855905920480e+00 9.4187412855517092e+00 1 0 0
98 33 1 5.8970000000000000e-01 3.0989065101520401e+00 -7.0253013808951621e-03 6.2207202532372552e+00 0 0 0
889 297 2 -1.1794000000000000e+00 -1.0427635211471107e+00 4.7679003152089674e+00 7.2378463363448472e-04 0 0 0
611 204 1 5.8970000000000000e-01 3.1086414249417396e+00 8.1191408880965099e+00 7.0814930935416456e+00 0 0 -1
76 26 2 -1.1794000000000000e+00 3.9699684621528775e+00 4.0898145033938675e+00 1.7320249574978927e-01 0 0 0
23 8 1 5.8970000000000000e-01 -5.7853725693488620e+00 5.4954021060262228e+00 1.0917727252271723e+01 0 0 0
589 197 2 -1.1794000000000000e+00 -5.6195409488332615e+00 -2.4339358066181085e-01 1.4893600246004834e+01 1 0 0
89 30 1 5.8970000000000000e-01 -8.2596817143781838e+00 7.9806233151481871e+00 1.7215915646007755e+01 1 0 -1
33 11 1 5.8970000000000000e-01 -3.1712132775145307e+00 3.5135918901480906e-02 1.8273305997669397e+01 0 0 -1
571 191 2 -1.1794000000000000e+00 -6.1016367068218749e+00 -2.8829431529554861e-01 1.8560645389780579e+01 0 0 0
591 197 1 5.8970000000000000e-01 -6.4995605705965476e+00 -5.4147001537544492e-01 1.5123687815811953e+01 1 0 0
824 275 1 5.8970000000000000e-01 -1.9471392455922290e+00 1.1299464742446546e+00 1.6000601802608671e+01 0 0 0
579 193 1 5.8970000000000000e-01 -2.9505669105448891e+00 7.9468503321459076e+00 1.1487695854255481e+01 0 0 0
123 41 1 5.8970000000000000e-01 -6.7402699815477627e+00 2.6774940864766692e+00 1.5504031724919198e+01 1 0 -1
572 191 1 5.8970000000000000e-01 -6.7657098267376625e+00 -5.9798881590881470e-01 1.7944754431135330e+01 0 0 0
519 173 1 5.8970000000000000e-01 -3.0261668299392914e+00 3.9843723003974851e+00 1.6186275562058643e+01 1 0 0
712 238 2 -1.1794000000000000e+00 3.0334187503401527e-01 2.2578442263334653e+00 1.3839085722195826e+01 0 0 0
437 146 1 5.8970000000000000e-01 -2.5245371523046809e+00 6.9448490933439615e+00 1.3516333258173267e+01 1 0 0
57 19 1 5.8970000000000000e-01 -4.2316207248273283e+00 3.5325345366864536e+00 1.3872873116681461e+01 0 0 -1
825 275 1 5.8970000000000000e-01 -3.3375531282694424e+00 5.7649262931726331e-01 1.6229309281505767e+01 0 0 0
578 193 1 5.8970000000000000e-01 -4.1683458110631557e+00 7.1630777522601123e+00 1.1928788823254013e+01 0 0 0
181 61 2 -1.1794000000000000e+00 6.2413233355563291e-01 1.3260795771891616e+00 1.0687671096503395e+01 0 0 0
323 108 1 5.8970000000000000e-01 -2.5699600511790273e+00 1.8403266562884185e-01 1.3942592141206410e+01 0 0 -1
958 320 2 -1.1794000000000000e+00 -2.0732553449767464e+00 8.1881297093817711e+00 1.8629984505200095e+01 0 0 -1
749 250 1 5.8970000000000000e-01 -5.4268282634675558e+00 7.5992069925484795e+00 1.5952018084911613e+01 -1 0 -1
96 32 1 5.8970000000000000e-01 -5.6339426078422541e+00 3.6888388268417507e+00 1.7535554131671454e+01 0 0 -1
31 11 2 -1.1794000000000000e+00 -3.4938707481812088e+00 -6.4103875384592046e-01 1.7677594271824955e+01 0 0 -1
75 25 1 5.8970000000000000e-01 -1.9446351882580162e+00 4.2757037409073977e+00 1.7939128549860584e+01 0 0 -1
587 196 1 5.8970000000000000e-01 -3.6410360802656689e+00 2.4210295294773738e+00 1.2108014749576020e+01 1 0 0
586 196 2 -1.1794000000000000e+00 -3.1027830129778846e+00 1.9276207679230106e+00 1.1489109168856952e+01 1 0 0
436 146 2 -1.1794000000000000e+00 -1.9979493416132659e+00 6.3910570437245813e+00 1.4092723004916381e+01 1 0 0
778 260 2 -1.1794000000000000e+00 5.7591232394841119e-01 4.8194505056985975e+00 1.0292159910361409e+01 0 0 0
183 61 1 5.8970000000000000e-01 2.0323822169905543e-02 1.9822217474332262e+00 1.0339689649831321e+01 0 0 0
784 262 2 -1.1794000000000000e+00 -1.3707194953967308e-01 4.8276822409547506e+00 1.2798589144289480e+01 1 0 1
590 197 1 5.8970000000000000e-01 -5.0898596866919030e+00 -1.0406293297152012e+00 1.4888196038395346e+01 1 0 0
510 170 1 5.8970000000000000e-01 4.3499288159760890e-01 -3.1235522415906225e-01 1.4260695191231930e+01 0 0 0
95 32 1 5.8970000000000000e-01 -6.2699497567711830e+00 4.2715147601531509e+00 1.8779681742558253e+01 0 0 -1
355 119 2 -1.1794000000000000e+00 -8.5792206824129380e+00 5.3643847929603901e+00 1.6276714158669598e+01 -1 0 -1
713 238 1 5.8970000000000000e-01 -2.1711891414927958e-01 2.8188947907577071e+00 1.3264152465899491e+01 0 0 0
122 41 1 5.8970000000000000e-01 -7.5649727603673238e+00 2.3486293560953175e+00 1.6730247918210186e+01 1 0 -1
397 133 2 -1.1794000000000000e+00 -8.4369096203047711e+00 8.5318881073850661e-01 1.7434661091272762e+01 1 0 0
324 108 1 5.8970000000000000e-01 -1.5627003611364541e+00 -4.7390030234279640e-01 1.3023674390612614e+01 0 0 -1
21 7 1 5.8970000000000000e-01 -6.1510579925427660e+00 5.9926038718330545e+00 1.4291465761456921e+01 0 0 -1
19 7 2 -1.1794000000000000e+00 -7.0627964754493000e+00 6.0278143673031179e+00 1.4002109069250174e+01 0 0 -1
690 230 1 5.8970000000000000e-01 -7.4249651385136097e+00 8.0806255024733744e+00 1.3339211638097316e+01 0 0 -1
959 320 1 5.8970000000000000e-01 -2.8159544959361731e+00 7.6360932541781859e+00 1.8874648639738979e+01 0 0 -1
517 173 2 -1.1794000000000000e+00 -3.8050682407176724e+00 3.5365595204372879e+00 1.5856136711486476e+01 1 0 0
73 25 2 -1.1794000000000000e+00 -1.4756567918816430e+00 4.1875500092619067e+00 1.7109357546490642e+01 0 0 -1
24 8 1 5.8970000000000000e-01 -4.7491929357778631e+00 4.9093806304621150e+00 1.1853023853223515e+01 0 0 0
573 191 1 5.8970000000000000e-01 -5.8125503510968057e+00 -1.0774273987330325e+00 1.9018767069377290e+01 0 0 0
780 260 1 5.8970000000000000e-01 4.5864094970397763e-02 4.2143488471254997e+00 9.7734095998041557e+00 0 0 0
88 30 2 -1.1794000000000000e+00 -7.6154872128478193e+00 7.5333118609889258e+00 1.7764682202705703e+01 1 0 -1
34 12 2 -1.1794000000000000e+00 -4.6345529098877130e+00 6.0726800564248666e+00 1.5150977679006649e+01 0 0 -1
130 44 2 -1.1794000000000000e+00 -3.3240962608813546e-01 1.6068013666852177e+00 1.7034406100059549e+01 1 0 -1
536 179 1 5.8970000000000000e-01 -4.8775146993129175e+00 6.1444058904308712e+00 1.8369736839171843e+01 0 0 0
142 48 2 -1.1794000000000000e+00 -5.5117246094973131e+00 1.0633466667724775e-01 9.8010332985893864e+00 1 0 0
399 133 1 5.8970000000000000e-01 -9.2768039677325262e+00 1.2976844845251332e+00 1.7319694455206257e+01 1 0 0
357 119 1 5.8970000000000000e-01 -8.2796935043260778e+00 5.9777274221296937e+00 1.6947759408614314e+01 -1 0 -1
182 61 1 5.8970000000000000e-01 1.4886374235044006e+00 1.7291731239728287e+00 1.0607874912458293e+01 0 0 0
356 119 1 5.8970000000000000e-01 -8.0434377496488558e+00 4.5824893996842659e+00 1.6409961116105638e+01 -1 0 -1
750 250 1 5.8970000000000000e-01 -4.9698577635181396e+00 8.1807035286605956e+00 1.7272970169201365e+01 -1 0 -1
22 8 2 -1.1794000000000000e+00 -4.8883809998008498e+00 5.6204534427982225e+00 1.1227570889974647e+01 0 0 0
563 188 1 5.8970000000000000e-01 -4.3540811901093213e-01 8.2370786858390463e+00 1.6491683617325595e+01 0 0 0
576 192 1 5.8970000000000000e-01 7.0627523499488154e-01 -9.4356519168069558e-02 1.2033029430759488e+01 0 0 0
322 108 2 -1.1794000000000000e+00 -2.4901165457325889e+00 -2.4695245768515295e-01 1.3091655728960440e+01 0 0 -1
588 196 1 5.8970000000000000e-01 -2.9125616831868046e+00 1.1047214255831412e+00 1.1939472324686797e+01 1 0 0
32 11 1 5.8970000000000000e-01 -4.4358677475065615e+00 -4.8099377114301056e-01 1.7620518441782224e+01 0 0 -1
562 188 2 -1.1794000000000000e+00 -1.2993514008927933e+00 8.1829801887185081e+00 1.6083140990863026e+01 0 0 0
90 30 1 5.8970000000000000e-01 -6.7836771294194929e+00 7.9563198705871656e+00 1.7551664391811592e+01 1 0 -1
398 133 1 5.8970000000000000e-01 -8.3820742761528386e+00 6.8324502242579688e-01 1.8375056178890819e+01 1 0 0
174 58 1 5.8970000000000000e-01 -2.0603199012334632e+00 2.4762306832448520e+00 9.9585749326403228e+00 1 0 -1
55 19 2 -1.1794000000000000e+00 -4.6598031748159281e+00 3.4653708858350281e+00 1.3019413389745068e+01 0 0 -1
143 48 1 5.8970000000000000e-01 -6.1372476662735220e+00 7.3471363848795634e-01 1.0161670380877290e+01 1 0 0
549 183 1 5.8970000000000000e-01 -6.3480330563948737e+00 1.1575209276492877e+00 1.4028100847645218e+01 0 0 0
779 260 1 5.8970000000000000e-01 4.9217302380290473e-01 5.6593358214149481e+00 9.8407714275423661e+00 0 0 0
56 19 1 5.8970000000000000e-01 -5.5269955539522124e+00 3.1095626964457614e+00 1.3213324694519025e+01 0 0 -1
438 146 1 5.8970000000000000e-01 -1.6616240387642260e+00 6.9898998188418222e+00 1.4759413594002481e+01 1 0 0
94 32 2 -1.1794000000000000e+00 -5.4220974644344127e+00 4.0403000434623824e+00 1.8400318825810714e+01 0 0 -1
518 173 1 5.8970000000000000e-01 -3.5352711408242876e+00 2.6229252046850027e+00 1.5763179078657720e+01 1 0 0
785 262 1 5.8970000000000000e-01 -8.0894134008479474e-02 5.0849916314937058e+00 1.1878337994555540e+01 1 0 1
35 12 1 5.8970000000000000e-01 -4.6200400733219649e+00 5.1612678525295612e+00 1.5443012324917454e+01 0 0 -1
823 275 2 -1.1794000000000000e+00 -2.8169985533277879e+00 1.0808888560282455e+00 1.5604155341909737e+01 0 0 0
36 12 1 5.8970000000000000e-01 -3.7303028854560996e+00 6.2578693468813071e+00 1.4897461823486202e+01 0 0 -1
547 183 2 -1.1794000000000000e+00 -6.8084476477656146e+00 1.9184028747996746e+00 1.3674177833523391e+01 0 0 0
535 179 2 -1.1794000000000000e+00 -4.5857824755390642e+00 6.9895777424966603e+00 1.8711423009821996e+01 0 0 0
121 41 2 -1.1794000000000000e+00 -6.9885047674594905e+00 3.0188018992580505e+00 1.6363169343667277e+01 1 0 -1
594 198 1 5.8970000000000000e-01 -8.5039228134369722e+00 -1.9960809783192351e-01 1.5946622202046983e+01 1 0 0
74 25 1 5.8970000000000000e-01 -1.2307023568087503e+00 3.2631360347507559e+00 1.7069179213743482e+01 0 0 -1
786 262 1 5.8970000000000000e-01 -8.5916423946903719e-01 5.3486746548638653e+00 1.3149817176257352e+01 1 0 1
548 183 1 5.8970000000000000e-01 -7.7361990348349678e+00 1.7104891735363603e+00 1.3785005910612735e+01 0 0 0
577 193 2 -1.1794000000000000e+00 -3.5715739475659318e+00 7.8564123674070228e+00 1.2210470197523183e+01 0 0 0
574 192 2 -1.1794000000000000e+00 2.9163651383725936e-01 -8.8557760389200380e-01 1.2376862671564666e+01 0 0 0
20 7 1 5.8970000000000000e-01 -7.5728007849627907e+00 5.8625659190119350e+00 1.4795090757506335e+01 0 0 -1
17 6 1 5.8970000000000000e-01 -9.6600259651628519e+00 4.9807288286298910e+00 1.9060862810913587e+01 1 0 -1
2 1 1 5.8970000000000000e-01 9.1018324459262046e-01 7.6867779830895984e+00 1.2814301172038903e+01 0 0 -1
592 198 2 -1.1794000000000000e+00 -8.5887260595965547e+00 -6.1060020218582145e-01 1.5086324247439924e+01 1 0 0
422 141 1 5.8970000000000000e-01 -7.1184744376868681e+00 2.1399706583312121e+00 1.1529559438631333e+01 0 0 0
960 320 1 5.8970000000000000e-01 -1.9466321234310178e+00 8.0200571487292809e+00 1.7696202472915555e+01 0 0 -1
1994 665 1 5.8970000000000000e-01 -4.5653232693400492e+00 -1.0499577742124093e+00 1.1127964448886740e+01 1 1 0
78 26 1 5.8970000000000000e-01 -3.6912830736719582e+00 4.3255614265521896e+00 1.9258914276023628e+01 0 0 -1
1000 334 2 -1.1794000000000000e+00 4.8749475823008410e+00 1.1431558084211094e+01 2.1660294287574997e+00 0 0 0
471 157 1 5.8970000000000000e-01 1.5622506514129519e+00 1.5017650516817239e+01 5.9848216354469566e+00 1 0 1
378 126 1 5.8970000000000000e-01 -8.0022786819148428e-01 1.7758230859215924e+01 7.8520914428436495e+00 0 0 0
222 74 1 5.8970000000000000e-01 -1.2799216825288637e+00 9.9822473539144383e+00 8.3686138417097098e+00 -1 0 -1
396 132 1 5.8970000000000000e-01 1.1337368938769727e+00 1.0643628206850416e+01 7.9160011663547465e+00 -1 0 -1
62 21 1 5.8970000000000000e-01 -3.5478831780979143e+00 1.2329593662637128e+01 9.1391235474509092e+00 1 0 0
220 74 2 -1.1794000000000000e+00 -2.1958753497724026e+00 9.9524494953777261e+00 8.0922560926808682e+00 -1 0 -1
227 76 1 5.8970000000000000e-01 -3.5940632120229346e+00 1.5887912093074403e+01 7.4412966019280864e+00 1 0 0
787 263 2 -1.1794000000000000e+00 1.0070763119702495e+00 1.3964306608729911e+01 2.7708765629568899e+00 1 0 0
515 172 1 5.8970000000000000e-01 -2.4273074909545125e+00 1.7195355408549705e+01 6.3874177909606331e+00 0 0 0
82 28 2 -1.1794000000000000e+00 -1.7538887541801773e+00 1.2028798367031644e+01 2.3014191381850799e+00 0 0 -1
998 333 1 5.8970000000000000e-01 -3.7291236614750707e+00 9.4074540926055210e+00 2.9796704202299327e+00 0 0 0
887 296 1 5.8970000000000000e-01 2.2488661647174304e+00 1.6474256303591627e+01 4.6519838470949324e+00 0 0 1
802 268 2 -1.1794000000000000e+00 3.5010890005319455e+00 1.3648509404337624e+01 1.6615563399947511e+00 0 0 1
514 172 2 -1.1794000000000000e+00 -3.3236863584972927e+00 1.7157012302995764e+01 6.0538495315852723e+00 0 0 0
166 56 2 -1.1794000000000000e+00 -3.4923062223977710e+00 1.4964403264346441e+01 3.0585636151882980e+00 0 0 0
759 253 1 5.8970000000000000e-01 2.6891082096323804e+00 1.7499855752654447e+01 1.6702338461906527e+00 2 0 1
63 21 1 5.8970000000000000e-01 -3.2954177184634714e+00 1.3803896510517665e+01 8.9058796443418569e+00 1 0 0
83 28 1 5.8970000000000000e-01 -9.7977253953381105e-01 1.1827259482963704e+01 2.8271164754525628e+00 0 0 -1
469 157 2 -1.1794000000000000e+00 1.5607594186311899e+00 1.5942783593404595e+01 6.2303545260867361e+00 1 0 1
395 132 1 5.8970000000000000e-01 9.5898456675734711e-01 1.0072266070758834e+01 9.3069999214110073e+00 -1 0 -1
38 13 1 5.8970000000000000e-01 2.8171520962490590e+00 9.1426823310790883e+00 2.6601581430440939e+00 0 0 -1
511 171 2 -1.1794000000000000e+00 -5.2843807496958624e+00 1.3124179409522595e+01 7.0252449905812409e+00 1 0 1
37 13 2 -1.1794000000000000e+00 2.0688033828715486e+00 9.6533124209404768e+00 2.3512208664822398e+00 0 0 -1
333 111 1 5.8970000000000000e-01 -4.3332833503764236e+00 1.2838347992976372e+01 5.4880260458325072e+00 0 0 -1
886 296 2 -1.1794000000000000e+00 2.7410255596360629e+00 1.6945997904066218e+01 3.9800819814661033e+00 0 0 1
668 223 1 5.8970000000000000e-01 -2.1269300079867324e+00 1.6733244960046189e+01 9.2305196021210012e-01 2 0 1
489 163 1 5.8970000000000000e-01 -1.6651266879062545e+00 1.3486486793908828e+01 7.3037086544535450e+00 1 0 -1
810 270 1 5.8970000000000000e-01 -3.3859321655450159e+00 1.6800958275920237e+01 2.8748857136832409e+00 1 0 1
633 211 1 5.8970000000000000e-01 2.4370702237576811e+00 1.0132442707039061e+01 5.6053630505196654e+00 0 0 0
597 199 1 5.8970000000000000e-01 -5.5664236206221505e+00 9.8071299648939707e+00 8.3400581194133370e+00 1 0 0
242 81 1 5.8970000000000000e-01 -2.2269702255376234e+00 9.6666176141072384e+00 5.6244608636592286e+00 0 0 -1
487 163 2 -1.1794000000000000e+00 -1.2294752629123187e+00 1.3617378812404985e+01 6.4615057907890119e+00 1 0 -1
61 21 2 -1.1794000000000000e+00 -3.0279595504524868e+00 1.2933987744168059e+01 8.6094153594456007e+00 1 0 0
757 253 2 -1.1794000000000000e+00 2.2356176112193711e+00 1.6733649733547448e+01 1.3188702025634311e+00 2 0 1
27 9 1 5.8970000000000000e-01 -1.0409141328359519e+00 1.6079812082500691e+01 8.9661802475987518e+00 0 0 0
803 268 1 5.8970000000000000e-01 4.0591626949843871e+00 1.4332858389497826e+01 2.0308968465672184e+00 0 0 1
150 50 1 5.8970000000000000e-01 -1.1900661643139006e+00 1.5059080356496244e+01 5.0558666853679819e+00 1 0 -1
513 171 1 5.8970000000000000e-01 -5.2760854613646959e+00 1.4059023401951173e+01 6.8199233881364618e+00 1 0 1
291 97 1 5.8970000000000000e-01 -1.0763843057570614e-01 1.0931668656086854e+01 4.3531409090440834e+00 0 0 -2
339 113 1 5.8970000000000000e-01 -5.8745252762771660e-01 1.7200288312145364e+01 4.4078759471419735e+00 1 0 0
488 163 1 5.8970000000000000e-01 -3.1743562077103787e-01 1.3375848600290473e+01 6.6229851978241214e+00 1 0 -1
221 74 1 5.8970000000000000e-01 -2.4491200235663375e+00 1.0871014283829332e+01 8.0013224574720070e+00 -1 0 -1
226 76 2 -1.1794000000000000e+00 -3.9077261484738384e+00 1.5441734881658890e+01 8.2279070659703883e+00 1 0 0
243 81 1 5.8970000000000000e-01 -2.5132768763986504e+00 1.0504677138115312e+01 4.3966496679830778e+00 0 0 -1
773 258 1 5.8970000000000000e-01 2.2142838081221732e+00 1.2798813812326960e+01 6.7887011946689499e+00 0 0 1
512 171 1 5.8970000000000000e-01 -4.4827513744954963e+00 1.2981908950695354e+01 7.5286133353537084e+00 1 0 1
997 333 2 -1.1794000000000000e+00 -3.9650159336480582e+00 1.0331755938180912e+01 3.0583142612215020e+00 0 0 0
470 157 1 5.8970000000000000e-01 2.3917894106207434e+00 1.6071035729287477e+01 6.6877093766109139e+00 1 0 1
631 211 2 -1.1794000000000000e+00 1.9350629284709377e+00 9.5102774465414939e+00 6.1317636021744777e+00 0 0 0
377 126 1 5.8970000000000000e-01 -3.3244180487583118e-02 1.6839117644306945e+01 6.9253813922810439e+00 0 0 0
148 50 2 -1.1794000000000000e+00 -1.0057471588880125e+00 1.5556701228728990e+01 4.2592408398922394e+00 1 0 -1
376 126 2 -1.1794000000000000e+00 -8.7220705294695566e-01 1.6930354519100455e+01 7.3771005837130454e+00 0 0 0
632 211 1 5.8970000000000000e-01 1.5025070525865594e+00 8.9470964921785363e+00 5.4899478365079393e+00 0 0 0
816 272 1 5.8970000000000000e-01 -3.1520156979278524e+00 1.3996109401654644e+01 3.3683106043954236e-01 1 0 0
168 56 1 5.8970000000000000e-01 -3.7190641599884100e+00 1.4390210678692808e+01 3.7900604695148856e+00 0 0 0
789 263 1 5.8970000000000000e-01 9.1988066759979659e-01 1.3040766106563460e+01 3.0067367204303141e+00 1 0 0
332 111 1 5.8970000000000000e-01 -2.8242793811631208e+00 1.2849408426558373e+01 5.6091973383632228e+00 0 0 -1
84 28 1 5.8970000000000000e-01 -2.4910090638397295e+00 1.1885926123483314e+01 2.8951129380287672e+00 0 0 -1
136 46 2 -1.1794000000000000e+00 -5.1755712476728233e+00 1.0146936419344534e+01 6.5751896233635181e+00 1 0 0
290 97 1 5.8970000000000000e-01 1.0198767134664575e+00 1.0915808579253673e+01 3.3430132664229704e+00 0 0 -2
167 56 1 5.8970000000000000e-01 -3.7440399365420163e+00 1.4470129443666581e+01 2.2784758728164709e+00 0 0 0
758 253 1 5.8970000000000000e-01 2.3195764081137376e+00 1.6070172340480504e+01 2.0036675671173754e+00 2 0 1
228 76 1 5.8970000000000000e-01 -4.0458381501735303e+00 1.6144138022715925e+01 8.8633152583944277e+00 1 0 0
39 13 1 5.8970000000000000e-01 1.3049989631267491e+00 9.1987800705490983e+00 2.7064945294168696e+00 0 0 -1
149 50 1 5.8970000000000000e-01 -1.6470151455553468e+00 1.5238597203794598e+01 3.6237806269173731e+00 1 0 -1
289 97 2 -1.1794000000000000e+00 4.2448769431121558e-01 1.1507049904014174e+01 3.8036072096947611e+00 0 0 -2
595 199 2 -1.1794000000000000e+00 -5.9647453476914825e+00 9.6241488292885187e+00 9.1909924370500473e+00 1 0 0
331 111 2 -1.1794000000000000e+00 -3.5317160080739649e+00 1.2772591540625463e+01 4.9689901830040313e+00 0 0 -1
1001 334 1 5.8970000000000000e-01 4.4017115389519024e+00 1.2187539681750879e+01 1.8185790161045858e+00 0 0 0
241 81 2 -1.1794000000000000e+00 -1.8046309417024169e+00 1.0058030919540409e+01 4.8598404403221664e+00 0 0 -1
860 287 1 5.8970000000000000e-01 -1.4293105824678556e+00 1.3381642326043060e+01 9.1823692280864333e-01 -1 0 0
441 147 1 5.8970000000000000e-01 2.9699197997573714e+00 1.0181643312038576e+01 7.5823057323856158e-01 0 0 0
495 165 1 5.8970000000000000e-01 -4.7458938346130246e+00 8.4502064502949530e+00 9.0974569909453837e+00 1 0 0
999 333 1 5.8970000000000000e-01 -4.1213430994555473e+00 1.0616961390848699e+01 2.1580628951631340e+00 0 0 0
788 263 1 5.8970000000000000e-01 5.6839627366325407e-01 1.4435348403693666e+01 3.4793246088062162e+00 1 0 0
804 268 1 5.8970000000000000e-01 2.8198304288657199e+00 1.3512965126157042e+01 2.3201504108633295e+00 0 0 1
215 72 1 5.8970000000000000e-01 4.2179048105900252e+00 1.6107854179863409e+01 3.3795246610217831e+00 -1 0 0
54 18 1 5.8970000000000000e-01 -4.4028842098112020e-01 8.9676201423114712e+00 4.4851488557931347e+00 0 0 -1