LAMMPS data file via write_data, version 30 Jul 2021, timestep = 22250000

864 atoms
2 atom types
576 bonds
1 bond types
288 angles
1 angle types

0.6779757175380219 17.529596682466014 xlo xhi
1.890097112005046 21.73908068799895 ylo yhi
0.8271287918348911 21.38606700815904 zlo zhi

Masses

1 1.00794
2 15.9994

Pair Coeffs # lj/cut/tip4p/long/omp

1 0 0
2 0.21084 3.1668

Bond Coeffs # harmonic/omp

1 450 0.9572

Angle Coeffs # harmonic/omp

1 55 104.52

Atoms # full

195 1 1 0.5897 1.990027798142398 3.631157463346552 1.7535091448311717 6 0 5
290 1 1 0.5897 1.8043406998470333 5.185161880681303 3.368257741723955 -8 -8 -7
289 1 2 -1.1794 2.3653733270417328 5.559516477165182 4.047412710067517 -8 -8 -7
857 1 1 0.5897 3.6148848716984205 1.9620407725544373 4.091583259996641 0 -1 -3
346 1 2 -1.1794 2.8974501071929604 2.8180237241348767 5.690305045729249 -2 1 -3
291 1 1 0.5897 3.2416933052806662 5.234764524461326 3.8406917700196512 -8 -8 -7
691 1 2 -1.1794 3.010398656683963 2.46725015390936 1.0200047893309592 1 2 1
162 1 1 0.5897 1.4275401280246682 5.285381978888827 5.779320527540509 6 12 4
193 1 2 -1.1794 1.148570252590697 3.999695011488717 2.0224118487318505 6 0 5
194 1 1 0.5897 0.8653504191007821 4.52321497528879 1.2728458330873154 6 0 5
693 1 1 0.5897 3.284929865500989 2.128683700205268 1.872142677907222 1 2 1
474 1 1 0.5897 1.1600224987683627 2.722011259190074 5.408740510199377 -2 2 4
360 1 1 0.5897 3.6807377295709474 5.900423301530968 7.414334644299876 11 1 -1
179 1 1 0.5897 0.8277361949789253 4.044322209411723 7.71317120261069 -5 5 3
358 1 2 -1.1794 4.176413328185685 5.123843261864803 7.154743265038428 11 1 -1
180 1 1 0.5897 1.3470833935903763 3.720863709469576 9.097841339695286 -5 5 3
822 1 1 0.5897 3.366646762848618 3.97308885601472 9.477939042752487 3 -3 5
238 1 2 -1.1794 2.28290107464883 5.435916397645562 9.86480890566955 -7 -7 5
239 1 1 0.5897 1.5000909126727824 5.751122115547392 10.316450917454983 -7 -7 5
820 1 2 -1.1794 3.6610722169610863 3.137802976954422 9.114957320110253 3 -3 5
821 1 1 0.5897 4.349548785621183 3.3753947226203858 8.493914413874188 3 -3 5
665 1 1 0.5897 4.086719939817684 5.941962438003084 10.71025517397671 8 -2 2
240 1 1 0.5897 2.3612561781394152 6.001999854186043 9.096982527183423 -7 -7 5
348 1 1 0.5897 3.025776004043165 2.059124507113764 6.2592796579873955 -2 1 -3
347 1 1 0.5897 3.3082880196496784 3.5430986257024113 6.161058052339965 -2 1 -3
178 1 2 -1.1794 0.740497441545208 3.4109184330986086 8.425435827186417 -5 5 3
160 1 2 -1.1794 0.8628738014534127 5.4268832155400535 6.539111979513072 6 12 4
586 1 2 -1.1794 3.3086564076756977 3.036291813810643 12.311956297146125 -2 -3 5
673 1 2 -1.1794 0.793111229385999 4.054448743170901 12.705660429268073 -2 -8 -2
587 1 1 0.5897 4.166532966660688 3.077291225984589 11.889455605283791 -2 -3 5
525 1 1 0.5897 2.9708618669615454 2.3373323282765845 14.147743533961899 2 0 4
674 1 1 0.5897 1.7279420923552888 3.8629065513203047 12.631024791074596 -2 -8 -2
12 1 1 0.5897 4.5571464324949575 3.4572845626917417 15.22540334636521 3 8 7
523 1 2 -1.1794 3.0022272376132197 2.3548187608701365 15.104231111047165 2 0 4
524 1 1 0.5897 2.3241216274023815 2.9820169415684985 15.355147336159403 2 0 4
588 1 1 0.5897 2.748191002534878 2.593735585737091 11.674650027970678 -2 -3 5
283 1 2 -1.1794 1.288335321609908 4.344878158201968 15.500993797829164 5 -2 0
580 1 2 -1.1794 4.251693488512238 6.13221459185698 13.820761254550876 -3 -4 -2
284 1 1 0.5897 1.802342154866347 5.083352634218284 15.827471311527862 5 -2 0
285 1 1 0.5897 0.8685407011416499 4.676852820102917 14.707454066638766 5 -2 0
564 1 1 0.5897 2.6198662707438993 6.820851721835134 13.918342678633998 0 5 9
581 1 1 0.5897 4.398146589774079 6.136131918873902 12.874894400324767 -3 -4 -2
582 1 1 0.5897 4.7247770861711995 5.361229422014378 14.13365277728331 -3 -4 -2
664 1 2 -1.1794 4.700341617131937 6.522404170495279 11.160464599991293 8 -2 2
480 1 1 0.5897 1.1464161231522878 2.10007172852717 18.912351150510364 -7 7 -4
112 1 2 -1.1794 3.7459165586636365 6.3263549729957385 20.759006942721363 -2 -2 3
663 1 1 0.5897 2.8284139311779097 3.3863957515087746 17.95230950160206 -4 0 -1
114 1 1 0.5897 4.246322257943838 5.554687267428108 20.49393665189739 -2 -2 3
661 1 2 -1.1794 3.502660107254682 4.061270525427451 18.030257723882524 -4 0 -1
662 1 1 0.5897 4.251112546814486 3.6089233642458716 18.419288142632084 -4 0 -1
485 1 1 0.5897 1.8882682070531283 5.738763174198744 20.090441245039546 4 0 -4
196 1 2 -1.1794 2.941003880444738 6.277763895731353 16.60353805761154 -3 0 2
484 1 2 -1.1794 0.9484413483527678 5.711528401029052 20.269675554710233 4 0 -4
197 1 1 0.5897 3.200870968995253 5.569057921062116 17.192040337315813 -3 0 2
198 1 1 0.5897 3.746737227574394 6.771816619121825 16.452416570764974 -3 0 2
671 1 1 0.5897 2.272824310978468 7.438968696075553 4.2355074740684096 5 4 1
769 1 2 -1.1794 1.833035440868346 7.851181003857441 1.8174101048448095 2 -5 3
634 1 2 -1.1794 3.9256511941392898 9.750492941361387 2.033299189827253 -5 3 2
670 1 2 -1.1794 2.1770632441367175 8.240158582962046 4.750344519159304 5 4 1
672 1 1 0.5897 2.0076436247751697 8.923362716567558 4.101762169243448 5 4 1
771 1 1 0.5897 0.9818834278498143 7.430757555432129 1.9395441583280586 2 -5 3
636 1 1 0.5897 3.105311511683335 9.265970365421023 2.1252945194256156 -5 3 2
2 1 1 0.5897 3.7773908640771343 10.813365461037082 5.336889201232429 -3 -9 4
24 1 1 0.5897 4.0587024642997225 8.233685747450217 5.112513769705158 -6 0 3
429 1 1 0.5897 1.3646098078848614 11.376433392966296 2.5539585009535672 0 3 1
635 1 1 0.5897 4.013640894365762 10.231696122357757 2.856016478961306 -5 3 2
1 1 2 -1.1794 4.182623895562861 11.120970009991257 4.526144061080507 -3 -9 4
770 1 1 0.5897 2.3079975689258303 7.26487073774661 1.2285161667472715 2 -5 3
427 1 2 -1.1794 1.5518730693586449 10.905772548199062 3.3660895457702016 0 3 1
428 1 1 0.5897 1.2699205611039155 11.502197371668524 4.059569169922563 0 3 1
288 1 1 0.5897 0.7276992114747102 8.978459830874758 5.747256873190537 7 -3 5
431 1 1 0.5897 4.740959003008898 6.91461370252683 1.403783123404419 -6 1 -2
255 1 1 0.5897 3.444918566411752 10.522750628835277 7.543912376207678 2 10 -6
253 1 2 -1.1794 2.7107402756059105 10.147212295195978 7.0580287171800835 2 10 -6
814 1 2 -1.1794 1.2066530504138653 9.79953539053493 9.32617504246639 -9 8 1
265 1 2 -1.1794 2.406593085212508 7.252798031617302 7.792691613079979 -2 2 -2
98 1 1 0.5897 0.8939694989671944 11.490941288916448 9.892032410277354 10 -11 5
254 1 1 0.5897 2.021828732861688 10.035019461223062 7.712970778559948 2 10 -6
267 1 1 0.5897 2.625587129868194 8.061996834326491 7.330771907954975 -2 2 -2
815 1 1 0.5897 1.9457225440800527 9.431707113513674 9.810537857628503 -9 8 1
513 1 1 0.5897 3.819717952455229 8.099254737905078 10.896178957903556 -1 3 -4
574 1 2 -1.1794 4.8245986770859615 11.04545686235929 8.430027759568588 5 -5 1
575 1 1 0.5897 4.804121097796714 11.172478327238899 9.378506127243702 5 -5 1
816 1 1 0.5897 0.6989005448451546 9.037367909359965 9.047933958230388 -9 8 1
511 1 2 -1.1794 3.1405500861711486 8.767715445028148 10.985748114826407 -1 3 -4
266 1 1 0.5897 1.6445427298192272 6.909097026825433 7.326558274807658 -2 2 -2
481 1 2 -1.1794 3.7337610104757184 9.394500789978796 14.561413413151111 3 3 -4
482 1 1 0.5897 4.445038235592133 9.154502997361487 13.967558964850976 3 3 -4
313 1 2 -1.1794 1.2222077679350165 10.523696416761682 12.523138765116597 -2 -1 -5
314 1 1 0.5897 1.3418961382586985 11.067853584053825 13.301402876793357 -2 -1 -5
512 1 1 0.5897 2.72694248585852 8.578262933581136 11.827878331024737 -1 3 -4
562 1 2 -1.1794 1.991934761340825 7.518257682574999 13.730049890474623 0 5 9
315 1 1 0.5897 1.2838603650596143 11.136235242145975 11.790247453869382 -2 -1 -5
483 1 1 0.5897 3.073266941013758 8.71393414080292 14.432139180894831 3 3 -4
302 1 1 0.5897 4.68357456638711 8.446342714514058 15.976766789314366 3 2 10
830 1 1 0.5897 1.9766560919705116 11.564631882956183 15.636237170860767 2 6 2
204 1 1 0.5897 4.471294889894718 11.172747890919798 14.47252930210491 -8 5 11
563 1 1 0.5897 1.180276942088943 7.0587641820072715 13.51507996245882 0 5 9
469 1 2 -1.1794 4.4800298179225235 11.157954653629444 11.127900601795405 2 1 2
470 1 1 0.5897 3.9202416942288636 10.384224027334957 11.192067656313892 2 1 2
375 1 1 0.5897 2.0995922669017935 11.296248126009669 17.745146748624975 8 10 4
859 1 2 -1.1794 1.467208500069828 9.244740262576677 19.987083412204427 -6 -5 0
373 1 2 -1.1794 2.618591058508489 10.837012274879642 17.08492112917552 8 10 4
861 1 1 0.5897 1.4423463053445098 8.905982696253908 20.88193179518483 -6 -5 0
374 1 1 0.5897 3.520512716158142 11.106151836354414 17.25882062996944 8 10 4
700 1 2 -1.1794 3.6450497477176467 10.93660505093909 20.169868597693508 2 2 -1
570 1 1 0.5897 1.869235254030787 7.3290138412697505 17.410658244024535 7 -3 2
569 1 1 0.5897 0.692166177457274 8.207386882424744 17.043730523930442 7 -3 2
860 1 1 0.5897 2.207835352706701 9.851003470447978 19.980491375030077 -6 -5 0
27 1 1 0.5897 4.2458802025411835 9.339170703358821 19.389817022499184 -4 4 7
568 1 2 -1.1794 0.9902906323930684 7.5757864097589795 17.698214234314506 7 -3 2
25 1 2 -1.1794 4.709773899638616 8.50195484293559 19.385284078325252 -4 4 7
702 1 1 0.5897 3.789822252087061 10.476913140643564 20.99683533174725 2 2 -1
113 1 1 0.5897 3.911613488133328 6.968528634839262 20.068863506843307 -2 -2 3
26 1 1 0.5897 4.818264505016771 8.292735602146013 18.457597762663617 -4 4 7
462 1 1 0.5897 1.5507116128401337 16.058992307726328 4.964901993848863 2 -1 0
440 1 1 0.5897 2.739218798161435 12.575250703029708 3.150203418267931 0 0 3
47 1 1 0.5897 2.3571867921302063 15.073485162102836 2.7866964108073304 7 -3 -3
46 1 2 -1.1794 1.80649152371883 15.80775758064988 3.0581982135102455 7 -3 -3
439 1 2 -1.1794 2.987972753343248 13.414255393569945 2.7622652464796063 0 0 3
48 1 1 0.5897 1.337138353965163 16.062281943257318 2.2638066567307518 7 -3 -3
441 1 1 0.5897 3.9269165562571247 13.332470025128492 2.5954336627896675 0 0 3
460 1 2 -1.1794 1.6499713053809715 16.078912239447746 5.916678238050411 2 -1 0
130 1 2 -1.1794 4.414830469834306 15.970633370134495 1.1904085303876422 -1 -2 2
132 1 1 0.5897 3.693137606433237 16.549387295327094 1.436052043171074 -1 -2 2
83 1 1 0.5897 3.443359272631764 13.686639711504677 5.617851507636717 5 -9 -5
323 1 1 0.5897 1.4014505253291833 12.501529404304332 5.690337790910137 9 -3 0
260 1 1 0.5897 2.474701908795706 13.344212123691387 9.798307079700038 6 -4 7
556 1 2 -1.1794 3.2440654946863803 16.759591767570086 8.540070158367275 3 -6 1
557 1 1 0.5897 2.9120725633665105 15.879995537235056 8.719712070702755 3 -6 1
261 1 1 0.5897 3.089414978195891 13.627090764433996 8.444146673420603 6 -4 7
259 1 2 -1.1794 3.14136801386303 13.878143703071842 9.36633097292915 6 -4 7
551 1 1 0.5897 4.6571976782559785 14.512431879337548 9.936016375518209 2 6 -6
84 1 1 0.5897 2.32753543704305 14.539788762960548 6.182477221592373 5 -9 -5
82 1 2 -1.1794 2.761914125088978 13.693678194259421 6.289970073800943 5 -9 -5
97 1 2 -1.1794 0.8768614044023547 12.340470745065268 10.332656468419106 10 -11 5
735 1 1 0.5897 0.7303433703490931 14.133861344870436 8.388149171841418 -4 -2 -4
434 1 1 0.5897 2.787464054109935 16.662192969577703 14.54075329574963 2 7 1
831 1 1 0.5897 2.267379159798417 12.96717540781224 15.14627519581635 2 6 2
258 1 1 0.5897 2.4362796156214728 15.287463840808106 16.041784640083232 3 -1 1
21 1 1 0.5897 2.5594129491434705 13.426322061504523 12.63938432444422 -8 -6 -6
20 1 1 0.5897 3.8299325590644497 13.05382810181523 13.373321030739126 -8 -6 -7
829 1 2 -1.1794 1.7392176701320545 12.19243398963833 14.953877726755852 2 6 2
839 1 1 0.5897 3.7359952842287485 15.278150071111357 12.789826797497472 -3 -7 -4
471 1 1 0.5897 3.971731077036096 11.856706777447663 11.539613119916076 2 1 2
19 1 2 -1.1794 3.5118730026414635 13.4141025072957 12.545562666013415 -8 -6 -6
257 1 1 0.5897 3.755748234595411 14.55523256001317 15.921284879801414 3 -1 1
838 1 2 -1.1794 3.7366559345993293 16.189768821417797 13.081519605149202 -3 -7 -4
280 1 2 -1.1794 0.8573061210869073 14.54090108240348 12.998472924372058 1 -1 5
840 1 1 0.5897 4.258867767620913 16.651282114410012 12.42544442813417 -3 -7 -4
531 1 1 0.5897 0.8048627047757703 16.34536574844664 12.773376714875562 -4 -3 -5
420 1 1 0.5897 2.0371440958159948 13.702884556609208 17.68212134401338 -8 -2 4
424 1 2 -1.1794 2.1503382894295635 16.01521238845472 19.308982671110183 4 -5 4
185 1 1 0.5897 3.790285772147882 13.928839411413572 21.075431757684207 -4 8 2
418 1 2 -1.1794 1.5107065857946689 13.230996259975658 18.327348134003074 -8 -2 4
419 1 1 0.5897 2.0645685863930012 13.192420119682982 19.107011659737225 -8 -2 4
426 1 1 0.5897 2.734605411699701 15.323050161563453 19.61829898086619 4 -6 4
104 1 1 0.5897 4.582837561179714 15.962523695127963 17.302536706006077 -4 -2 6
184 1 2 -1.1794 3.0980405804888336 13.432421514312292 20.638976827358086 -4 8 2
425 1 1 0.5897 1.619836713471849 16.240706445944443 20.073085999938083 4 -5 4
392 1 1 0.5897 0.7005353459498547 15.604931473757837 18.039425280929574 3 -2 -4
186 1 1 0.5897 2.427115279505241 13.314204862884509 21.311312874739876 -4 8 2
256 1 2 -1.1794 2.9039952337614547 14.513697306727732 16.355937966768728 3 -1 1
701 1 1 0.5897 3.467983769103823 11.841665597982807 20.426191676824427 2 2 -1
437 1 1 0.5897 0.8378685515760969 19.033544527489056 3.5933080600335816 0 3 3
436 1 2 -1.1794 1.5032695310588657 19.70665947106761 3.450856733819943 0 3 3
247 1 2 -1.1794 4.417672620552761 18.289322658629494 4.053040401363965 -7 3 -2
122 1 1 0.5897 2.983388459097808 18.45964311082127 2.244705809290468 2 -2 2
858 1 1 0.5897 3.2195770040097895 20.511434808642754 3.423417308009279 0 -2 -3
248 1 1 0.5897 4.476236381135717 18.289611831482176 5.00840912660903 -7 3 -2
121 1 2 -1.1794 3.015101686711431 18.317010302588322 1.298775104861238 2 -2 2
294 1 1 0.5897 1.3606298503448362 19.367953723940154 5.582816393614653 2 1 1
438 1 1 0.5897 1.0092560096311525 20.47674832590112 3.1697019148745342 0 3 3
123 1 1 0.5897 3.7013211525194687 18.908425288813504 0.9897749329789385 2 -2 2
856 1 2 -1.1794 3.811898028425616 21.258138884593308 3.335512566012589 0 -2 -3
461 1 1 0.5897 1.8951269333908798 16.982947819834973 6.113517717010815 2 -1 0
67 1 2 -1.1794 4.238033314978821 20.34571361160348 9.646241549732355 0 1 -9
149 1 1 0.5897 4.088505446988378 20.34287082732795 7.8354563177862895 -8 -1 3
292 1 2 -1.1794 1.5820459046031972 18.79362545379803 6.3157890116132815 2 1 1
328 1 2 -1.1794 2.0508814674173648 18.52545977127734 10.40798309325324 2 5 -2
293 1 1 0.5897 1.3375825484660817 19.29341584441903 7.094620223127704 2 1 1
150 1 1 0.5897 3.345352150498566 19.54044899126174 6.788792881711855 -8 -1 3
330 1 1 0.5897 1.290894700904381 18.523630019554652 9.82611425963411 2 5 -2
68 1 1 0.5897 3.4055581833696795 19.920861499585563 9.852810822623107 0 1 -9
558 1 1 0.5897 2.9062967569522957 17.294845748575383 9.258094894403827 3 -6 1
252 1 1 0.5897 1.0797319019339189 20.949831442363646 10.269115780592811 2 -5 4
69 1 1 0.5897 4.017760481441364 21.272462392144867 9.552584012185182 0 1 -9
148 1 2 -1.1794 3.766588427621382 20.387377113756195 6.935169495927189 -8 -1 3
174 1 1 0.5897 4.445723394237433 17.124863840078355 7.218300983464573 2 -4 2
329 1 1 0.5897 1.7350324903822882 18.122202763680576 11.216545335996399 2 5 -2
14 1 1 0.5897 1.2920565780852686 18.73758918022986 13.342897739726151 0 -6 -2
251 1 1 0.5897 0.9584208233452671 20.665406425913652 11.751020559588524 2 -5 4
705 1 1 0.5897 2.8336912977840183 20.513444765287687 16.035114004004395 8 -5 0
15 1 1 0.5897 1.32849140052407 20.175515528462377 13.814857977979461 0 -6 -2
13 1 2 -1.1794 1.8959283936752056 19.445101486511774 13.56851078715834 0 -6 -2
716 1 1 0.5897 3.527250763236732 19.50092316338455 13.063172309193357 2 -8 -5
717 1 1 0.5897 4.635233846228886 19.15547950593129 12.091212942672987 2 -8 -5
704 1 1 0.5897 2.6797363260654055 19.12861714149348 15.443316406855631 8 -5 0
715 1 2 -1.1794 4.480380898899359 19.462411766302175 12.984512074321016 2 -8 -5
433 1 2 -1.1794 2.2573188839424 17.00498301183944 15.260176960882971 2 7 1
435 1 1 0.5897 2.8846676601066323 17.166492611843317 15.964788267578362 2 7 1
529 1 2 -1.1794 0.7550158430225151 17.265828851944732 12.51569132389617 -4 -3 -5
250 1 2 -1.1794 1.2735347793270682 21.3216168243614 11.129552601487397 2 -5 4
676 1 2 -1.1794 1.3444387118752124 20.254932650365 20.72719503703676 0 1 -6
367 1 2 -1.1794 4.718432995727517 21.50109174522852 18.55950109765014 5 8 0
154 1 2 -1.1794 1.349421336526082 18.716602794742982 18.48016054924005 6 1 -4
156 1 1 0.5897 1.7851186256158451 19.051054410096157 17.69629523151869 6 1 -4
368 1 1 0.5897 3.7637469330325795 21.533586217146322 18.498850157550454 5 8 0
103 1 2 -1.1794 4.53463003200204 16.914887115158432 17.219913062777643 -4 -2 6
155 1 1 0.5897 1.5302570279151004 17.77671418781948 18.47268206147299 6 1 -4
677 1 1 0.5897 1.3543452967334535 19.999596760488494 19.804787405066566 0 1 -6
478 1 2 -1.1794 1.8253535971985946 21.67289267170888 18.296797241959975 -7 6 -4
692 1 1 0.5897 2.354300195870353 21.690485081202283 21.272158755036813 1 1 0
479 1 1 0.5897 1.3568277623575171 21.516930418781563 17.4768623426183 -7 6 -4
678 1 1 0.5897 1.9363732341101885 19.635590645132083 21.15400399928907 0 1 -6
546 1 1 0.5897 4.819702281205226 17.328971958373884 19.126436600374983 -7 7 1
703 1 2 -1.1794 2.8668688796184276 19.584596672911125 16.263816653010945 8 -5 0
503 1 1 0.5897 8.694752117839831 5.553478730912504 3.895279817870529 -10 3 9
792 1 1 0.5897 6.187309824003091 3.831677815503724 3.403748965039042 2 6 -3
504 1 1 0.5897 8.160368978630322 4.188994852231578 3.5154766418878336 -10 3 9
76 1 2 -1.1794 5.077474550340066 5.242840744758272 3.537801556099396 -7 -3 -5
790 1 2 -1.1794 6.873177336747672 3.1864891085921703 3.5753501763377455 2 6 -3
5 1 1 0.5897 8.089682665002726 6.100187561184434 1.0945671749548793 6 3 -1
791 1 1 0.5897 6.655596365917038 2.828026316520499 4.4357511574465445 2 6 -3
66 1 1 0.5897 7.581363515080855 6.5393002123809065 5.415814111123119 3 -3 -7
78 1 1 0.5897 5.140441555706547 6.017654129027876 2.9793776091323583 -7 -3 -5
77 1 1 0.5897 5.008989247956625 5.592281446423398 4.4262501271262025 -7 -3 -5
781 1 2 -1.1794 8.042186700286502 4.084602977892223 0.8650958508646135 -1 0 1
464 1 1 0.5897 9.051850190573226 4.014883738943734 5.162208336244751 6 4 -6
502 1 2 -1.1794 8.955588507578792 4.721487101322283 3.5004436020668765 -10 3 9
783 1 1 0.5897 8.158830129649031 3.3171212636714396 1.425004091115773 -1 0 1
666 1 1 0.5897 5.502559232065552 6.473253965584232 10.640646327562143 8 -2 2
756 1 1 0.5897 6.2977965036122265 2.5419651528860627 6.808351265295587 -5 -4 -5
59 1 1 0.5897 6.473933238880624 3.506183140200042 9.221366179745008 6 0 -2
58 1 2 -1.1794 6.8022515198944005 3.1878338765557093 8.380512905451013 6 0 -2
60 1 1 0.5897 7.377797072248285 2.4578178745869783 8.60847322335935 6 0 -2
17 1 1 0.5897 7.433107439904061 4.946800878020822 6.824628511521132 -1 5 1
359 1 1 0.5897 5.085167667350514 5.4216315920770155 7.114323282472642 11 1 -1
136 1 2 -1.1794 6.976552037242601 6.21993561454026 9.659185500255855 6 -13 -2
137 1 1 0.5897 7.717908064846286 5.649754883281121 9.862694955933632 6 -13 -2
16 1 2 -1.1794 6.841624684924062 5.698096086289372 6.781237457629935 -1 5 1
18 1 1 0.5897 6.876307581461806 6.081754383848629 7.6574442756403975 -1 5 1
463 1 2 -1.1794 8.700024973683227 3.79572714483977 6.0249469337862624 6 4 -6
451 1 2 -1.1794 8.971250332954126 4.538302526433679 10.557241946920852 -5 5 7
754 1 2 -1.1794 5.994566033005266 2.1197239075231704 6.004666675638505 -5 -4 -5
465 1 1 0.5897 8.762340072253362 2.8418816569263132 6.074287796858563 6 4 -6
407 1 1 0.5897 7.70978301557886 4.74273835381777 13.730210544293238 -4 -1 4
10 1 2 -1.1794 5.4470607645667934 3.7855872197518576 15.097286730014114 3 8 7
11 1 1 0.5897 5.781760119641561 3.9237198200936994 15.983302366732026 3 8 7
622 1 2 -1.1794 5.869437934708337 3.440974671170625 11.244636801172264 6 8 4
408 1 1 0.5897 7.795974271023622 5.71640675447204 12.574222926660324 -4 -1 4
623 1 1 0.5897 6.351567568230598 4.073786068255577 11.776829388063877 6 8 4
406 1 2 -1.1794 7.168887427093648 5.276126327411457 13.147883998649087 -4 -1 4
577 1 2 -1.1794 8.686031399415976 3.8692143585153387 15.021672716275798 0 4 -5
578 1 1 0.5897 8.58772818451986 3.0531524100822685 15.512086799271882 0 4 -5
579 1 1 0.5897 8.992424521983848 4.503308725095877 15.669881609499795 0 4 -5
810 1 1 0.5897 5.884382261889191 2.136493081578165 14.373107394522624 1 0 -5
624 1 1 0.5897 6.298424721757712 2.6035383108654426 11.420174104329702 6 8 4
201 1 1 0.5897 7.222676304778565 5.990058121599391 16.164855575856798 6 -3 -3
554 1 1 0.5897 5.018351254189606 3.367554895122125 20.675462174927386 -8 -1 0
782 1 1 0.5897 8.57276549102947 3.8992849973684858 20.64926080542986 -1 0 0
850 1 2 -1.1794 6.6596790730303805 4.099683564311933 17.723252085985557 -8 -3 -2
555 1 1 0.5897 6.376766292296708 4.035641143687636 20.674096756587637 -8 -1 0
852 1 1 0.5897 7.609893380418636 4.131289985548079 17.83386592427606 -8 -3 -2
553 1 2 -1.1794 5.511422261834967 4.079236369858751 20.26739568134727 -8 -1 0
851 1 1 0.5897 6.311452701790553 4.201832591638235 18.60893356454298 -8 -3 -2
4 1 2 -1.1794 8.21973416968109 7.041865417409046 1.20623154112491 6 3 -1
296 1 1 0.5897 6.253609665323816 9.010360772551522 4.160657816000661 3 1 -1
389 1 1 0.5897 6.735095752619293 9.345197330586444 1.0881161725320516 -4 8 5
295 1 2 -1.1794 6.98697622481244 9.172711821759941 3.5673952648123337 3 1 -1
297 1 1 0.5897 7.168663430409484 10.107823715168674 3.6607240080102676 3 1 -1
430 1 2 -1.1794 5.320272190845209 7.4105182297342855 1.9822623184906973 -6 1 -2
65 1 1 0.5897 7.724505306506808 7.616399759592556 4.36177133867338 3 -3 -7
6 1 1 0.5897 7.412859025950001 7.348128446928323 1.62012927067422 6 3 -1
3 1 1 0.5897 4.952809368110816 10.563412125377226 4.41624084954967 -3 -9 4
432 1 1 0.5897 5.002448035407135 8.311568068325833 1.925190234535107 -6 1 -2
22 1 2 -1.1794 5.001713646632386 8.396055161430361 5.134781516900005 -6 0 3
349 1 2 -1.1794 7.429785199120799 11.75098717887031 3.727823257026247 -13 -3 0
64 1 2 -1.1794 8.200030138362312 6.898728728660252 4.780054577649312 3 -3 -7
268 1 2 -1.1794 6.115188937607646 8.74776193700421 7.589107940709374 2 3 5
576 1 1 0.5897 5.291643112593586 10.218850859940313 8.308622124143078 5 -5 1
100 1 2 -1.1794 6.486759877855072 8.971120348513761 10.433619728631584 1 -4 -3
102 1 1 0.5897 7.311110824584277 9.367387834019851 10.71568671074804 1 -4 -3
269 1 1 0.5897 6.249463319268946 8.509231611305648 8.506279345990878 2 3 5
270 1 1 0.5897 6.880943880793114 9.276019520733474 7.363951726234106 2 3 5
500 1 1 0.5897 8.539148526423006 10.903002926984303 6.688517510266152 1 -1 -3
499 1 2 -1.1794 8.424145166553693 10.026638325171527 7.055861246749797 1 -1 -3
138 1 1 0.5897 7.157802084299525 7.029074757749838 10.137274775239268 6 -13 -2
23 1 1 0.5897 5.242309298202798 8.287170082780422 6.054773888941651 -6 0 3
794 1 1 0.5897 8.403926379340511 8.2050288217448 11.94135113645819 -6 1 5
394 1 2 -1.1794 5.786734732361239 8.753380035395725 13.125106048105476 3 2 1
680 1 1 0.5897 7.378019901194177 9.923513776536277 15.575061864737993 -7 -5 -2
584 1 1 0.5897 8.88715073101752 6.965835796671169 14.804612677043215 3 -6 4
679 1 2 -1.1794 7.535716513368679 10.079942921002718 14.644038075467034 -7 -5 -2
396 1 1 0.5897 6.447156863137383 9.33301191792403 13.504575830544951 3 2 0
395 1 1 0.5897 5.990794026135299 7.889770429711858 13.483816810396085 3 2 1
681 1 1 0.5897 7.9581961146821545 10.938288177288197 14.61311995221457 -7 -5 -2
118 1 2 -1.1794 8.768957014400394 10.1141618610677 11.353180537353888 4 -3 -5
120 1 1 0.5897 8.283543505800246 10.857836454812318 11.710182172394072 4 -3 -5
101 1 1 0.5897 5.952178072797539 8.938860039409473 11.226933507467734 1 -4 -3
793 1 2 -1.1794 8.559509952709224 7.275454692578697 11.774549930802479 -6 1 5
212 1 1 0.5897 6.128123472714011 11.55188848451724 11.8933768973133 6 2 1
211 1 2 -1.1794 6.867766887367197 11.79950378843348 12.448125904667076 6 2 1
694 1 2 -1.1794 7.368321830889396 9.928665833462334 17.634336791265603 3 0 -4
833 1 1 0.5897 6.127699223488284 11.320752276934552 17.738212635909292 -2 -9 2
696 1 1 0.5897 7.237759132079247 9.082184422776994 18.06160582437476 3 0 -4
647 1 1 0.5897 6.785089509333652 11.53717986668436 20.48724883769082 -7 4 0
272 1 1 0.5897 7.468451959564119 7.127409130564202 19.771575215528838 -1 2 1
271 1 2 -1.1794 7.932339831078815 7.22900657956529 18.94054392408373 -1 2 1
303 1 1 0.5897 5.8982789646004 7.657946519856858 16.41789146871121 3 2 10
695 1 1 0.5897 8.273101611208915 10.164050825266683 17.839546062722892 3 0 -4
388 1 2 -1.1794 6.670766463429713 9.902060478379495 20.871193463437145 -4 8 5
390 1 1 0.5897 5.987529347382531 9.494346206672027 20.339117342566063 -4 8 5
301 1 2 -1.1794 5.091743278875901 8.053546224568347 16.748282249476958 3 2 10
707 1 1 0.5897 8.707991558090134 9.93684540314349 20.771440953244213 -5 -2 -4
200 1 1 0.5897 7.81987020011868 6.927746075970226 17.192344882730275 6 -3 -3
273 1 1 0.5897 8.856849459536251 7.131299030293965 19.168276392429586 -1 2 1
199 1 2 -1.1794 7.5274482589930685 6.889824265927081 16.28175174140814 6 -3 -3
107 1 1 0.5897 8.957440817477046 13.271750612369678 1.7391242321270501 0 0 4
159 1 1 0.5897 4.895222941348108 12.810804556388964 5.1660102479694 3 2 -2
863 1 1 0.5897 8.168977249723198 15.831703681311634 1.6858524061668365 5 -7 4
309 1 1 0.5897 6.560601642838146 16.43865969240717 3.843173636163155 5 10 -3
823 1 2 -1.1794 5.757443434075877 13.214462290519215 2.2062392621191407 2 6 4
350 1 1 0.5897 7.70855372636453 11.944008178409012 4.6229089891280335 -13 -3 0
862 1 2 -1.1794 8.00251315209385 14.945582029580622 1.3645288305053647 5 -7 4
864 1 1 0.5897 7.1286050939337295 14.732003267932841 1.6913938100268597 5 -7 4
825 1 1 0.5897 6.30377884094952 12.656101355363935 2.759318980135407 2 6 4
824 1 1 0.5897 5.937880455168212 12.918612824797082 1.314023290199547 2 6 4
157 1 2 -1.1794 5.2655041702457694 13.6775339413058 5.332751869237251 3 2 -2
307 1 2 -1.1794 5.773834639794039 15.972263414800437 3.5610351913137674 5 10 -3
158 1 1 0.5897 5.266838762508625 14.106578326303737 4.477143371255697 3 2 -2
308 1 1 0.5897 5.057010449606935 16.580776057018813 3.739954366787426 5 10 -3
387 1 1 0.5897 8.73086085027195 15.32910604743468 5.666947708580728 -6 1 1
351 1 1 0.5897 8.206597481291514 11.916295581888106 3.193629563937155 -13 -3 0
131 1 1 0.5897 4.958456093110213 15.918030134419554 1.9764364275188724 -1 -2 2
818 1 1 0.5897 6.162416081392784 12.489479158175849 8.472656395617879 3 -9 -4
550 1 2 -1.1794 5.426362814062853 15.076787702348293 10.013570029710738 2 6 -6
609 1 1 0.5897 6.270669116096278 14.848940908411844 6.222716609103958 5 4 6
54 1 1 0.5897 7.803662251847168 16.09919894700872 7.975682787121177 -5 0 4
819 1 1 0.5897 6.472169779199102 13.946088578335598 8.744716854858556 3 -10 -4
552 1 1 0.5897 5.799312246704236 14.858119583039088 10.867557694785926 2 6 -6
817 1 2 -1.1794 6.879300626235337 13.123687688737668 8.472600765886583 3 -9 -4
370 1 2 -1.1794 8.349447031401683 12.623055186166276 6.171423243216517 2 9 0
372 1 1 0.5897 7.750430953437098 12.955859684250925 6.839711498304138 2 9 0
607 1 2 -1.1794 6.846953052071569 15.562142362939163 6.497278810828916 5 4 6
45 1 1 0.5897 8.448883035873692 12.811890321967866 9.377167732000867 -1 4 0
608 1 1 0.5897 6.458738971482119 16.346819884098203 6.110265829262087 5 4 6
52 1 2 -1.1794 8.256038544124138 16.71232674307368 8.554966570504657 -5 0 4
91 1 2 -1.1794 6.7592505948073445 14.707847263339369 12.547067284594148 -2 -5 3
642 1 1 0.5897 8.6846419034362 15.65330118054476 15.965032682337961 2 -2 -4
93 1 1 0.5897 7.625411117469104 15.015610390945074 12.813866229431051 -2 -5 3
604 1 2 -1.1794 5.325808804194216 14.904512663482793 14.903502687311091 -1 1 1
92 1 1 0.5897 6.231429293723057 14.756088262946095 13.344068012940909 -2 -5 3
605 1 1 0.5897 5.096878557331167 15.782931751460959 14.599894658975378 -1 1 1
213 1 1 0.5897 6.816345365822511 12.753621412614077 12.504866740205774 6 2 1
641 1 1 0.5897 8.203049785468671 14.222305143942656 15.855359499791879 2 -2 -4
202 1 2 -1.1794 4.9664626027517516 11.985819964950405 14.571823139799601 -8 5 11
606 1 1 0.5897 6.162390652129224 15.017018458150984 15.354835767628666 -1 1 1
640 1 2 -1.1794 7.888436628941343 15.123364881394103 15.927974337737945 2 -2 -4
203 1 1 0.5897 5.690611785410004 11.903049002165679 13.951408886007107 -8 5 11
127 1 2 -1.1794 8.449807722176661 13.210997604098827 18.56807333610467 -5 -1 -1
129 1 1 0.5897 7.805823311502669 13.02981343287331 19.25260460616602 -5 -1 -1
628 1 2 -1.1794 7.633405571232631 15.785866628504237 19.179686862470273 3 -4 2
629 1 1 0.5897 7.1232143669468355 16.595514512599436 19.19736606315789 3 -4 2
128 1 1 0.5897 8.28495726446131 14.120089237059169 18.31806683153771 -5 -1 -1
648 1 1 0.5897 5.920407364470443 12.316821632394644 19.51971353758141 -7 4 0
630 1 1 0.5897 7.717777273655387 15.535254353703154 20.099580252390922 3 -4 2
759 1 1 0.5897 6.065211796509434 14.912890577917041 18.46060370692916 -2 3 -1
834 1 1 0.5897 5.4874072196696115 12.135440204409198 16.63459884305986 -2 -9 2
646 1 2 -1.1794 6.606041320591529 12.42537190406061 20.17870942089711 -7 4 0
832 1 2 -1.1794 5.3981317567056735 11.914654232288552 17.56164422228744 -2 -9 2
758 1 1 0.5897 5.260297716887011 13.644960150749599 18.27054291714025 -2 3 -1
757 1 2 -1.1794 5.191698701961222 14.544109913102847 18.59140963291395 -2 3 -1
56 1 1 0.5897 5.926574328259003 20.671290605410036 4.085415302800646 -1 -7 1
517 1 2 -1.1794 8.464015336136608 21.115025234242225 1.2586553004004455 0 3 0
249 1 1 0.5897 5.01559347429417 18.983404004250538 3.7757676975600956 -7 3 -2
57 1 1 0.5897 6.764164736113664 20.597810160708754 2.8265584190552167 -1 -7 1
242 1 1 0.5897 7.679618933152697 18.846777134514475 1.1190528321127162 -4 -3 -3
55 1 2 -1.1794 6.54876954723104 20.110785870615878 3.621896440277597 -1 -7 1