LAMMPS (30 Jul 2021)
  using 1 OpenMP thread(s) per MPI task
package omp 0
using multi-threaded neighbor list subroutines
echo both

include		in.partitions
variable        pid world 0
include		in.temp
variable        temperature equal 261.61
variable	tempDamp equal 100.0
include		in.pressure
variable        pressure equal 7750.0
variable        pressureDamp equal 1000.0 # This is 1 ps
include		in.seed
variable        seed world 745823

units		real
atom_style	full
read_restart	restart.lmp.${pid}
read_restart	restart.lmp.0
Reading restart file ...
  restart file = 30 Jul 2021, LAMMPS = 30 Jul 2021
  restoring atom style full from restart
  orthogonal box = (0.53553065 1.7223156 0.65334614) to (17.672042 21.906862 21.559850)
  4 by 4 by 4 MPI processor grid
  restoring pair style lj/cut/tip4p/long/omp from restart
  restoring bond style harmonic/omp from restart
  restoring angle style harmonic/omp from restart
  864 atoms
  576 bonds
  288 angles
Finding 1-2 1-3 1-4 neighbors ...
  special bond factors lj:    0        0        0       
  special bond factors coul:  0        0        0       
     2 = max # of 1-2 neighbors
     1 = max # of 1-3 neighbors
     1 = max # of 1-4 neighbors
     2 = max # of special neighbors
  special bonds CPU = 0.482 seconds
  read_restart CPU = 0.715 seconds
include 	in.setup
variable	out_freq equal 1000
variable	out_freq2 equal 10000
variable	out_freq3 equal 1000

timestep	2.0

neigh_modify    delay 7 every 1

include		in.tip4p
# This is TIP4P/Ice

# create groups ###
group ox type 2
288 atoms in group ox
group hy type 1
576 atoms in group hy

# set charges - beside manually ###
set group ox charge -1.1794
Setting atom values ...
  288 settings made for charge
set group hy charge 0.5897
Setting atom values ...
  576 settings made for charge

# ### TIP3P Potential Parameters ###
pair_style lj/cut/tip4p/long/omp 2 1 1 1 0.1577 8.5
pair_coeff 1 1*2 0.000 0.000
pair_coeff 2 2 0.21084 3.1668
bond_style  harmonic
bond_coeff  1 450 0.9572
angle_style harmonic
angle_coeff 1 55 104.52
kspace_style pppm/tip4p/omp 1.0e-5
pair_modify tail yes

thermo          ${out_freq}
thermo          1000
thermo_style    custom step temp pe etotal epair emol press lx ly lz vol pxx pyy pzz pxy pxz pyz enthalpy

restart 	${out_freq3} restart.lmp.${pid} restart2.lmp.${pid}
restart 	1000 restart.lmp.${pid} restart2.lmp.${pid}
restart 	1000 restart.lmp.0 restart2.lmp.${pid}
restart 	1000 restart.lmp.0 restart2.lmp.0


include         in.dump
dump            myDump all atom ${out_freq2} dump.water.${pid}
dump            myDump all atom 10000 dump.water.${pid}
dump            myDump all atom 10000 dump.water.0
dump            myDump2 all dcd ${out_freq2} dump.dcd
dump            myDump2 all dcd 10000 dump.dcd
dump_modify     myDump append yes
dump_modify     myDump2 append yes


variable natoms 	equal  "count(all)"                        # NUMBER ATOMS
variable H      	equal  "enthalpy/v_natoms"                 # ENTHALPY-per-atom
variable Vol      	equal  "vol/v_natoms"                 # volume-per-atom
fix AVG all 		ave/time ${out_freq} 1 ${out_freq} v_Vol v_H file vol_enthalpy.dat
fix AVG all 		ave/time 1000 1 ${out_freq} v_Vol v_H file vol_enthalpy.dat
fix AVG all 		ave/time 1000 1 1000 v_Vol v_H file vol_enthalpy.dat


timer           timeout 23:50:00 every 1000
New timer settings: style=normal  mode=nosync  timeout=23:50:00

fix 		1 all shake 1e-6 200 0 b 1 a 1
       0 = # of size 2 clusters
       0 = # of size 3 clusters
       0 = # of size 4 clusters
     288 = # of frozen angles
  find clusters CPU = 0.126 seconds
fix             2 all nph iso ${pressure} ${pressure} ${pressureDamp}
fix             2 all nph iso 7750 ${pressure} ${pressureDamp}
fix             2 all nph iso 7750 7750 ${pressureDamp}
fix             2 all nph iso 7750 7750 1000
fix             3 all temp/csvr ${temperature} ${temperature} ${tempDamp} ${seed}
fix             3 all temp/csvr 261.61 ${temperature} ${tempDamp} ${seed}
fix             3 all temp/csvr 261.61 261.61 ${tempDamp} ${seed}
fix             3 all temp/csvr 261.61 261.61 100 ${seed}
fix             3 all temp/csvr 261.61 261.61 100 745823

run             250000
PPPM initialization ...
  extracting TIP4P info from pair style
  using 12-bit tables for long-range coulomb (../kspace.cpp:340)
  G vector (1/distance) = 0.37347905
  grid = 24 24 24
  stencil order = 5
  estimated absolute RMS force accuracy = 0.0032514491
  estimated relative force accuracy = 9.7916424e-06
  using double precision FFTW3
  3d grid and FFT values/proc = 2535 216
Last active /omp style is kspace_style pppm/tip4p/omp
Neighbor list info ...
  update every 1 steps, delay 7 steps, check yes
  max neighbors/atom: 2000, page size: 100000
  master list distance cutoff = 10.8154
  ghost atom cutoff = 10.8154
  binsize = 5.4077, bins = 4 4 4
  1 neighbor lists, perpetual/occasional/extra = 1 0 0
  (1) pair lj/cut/tip4p/long/omp, perpetual
      attributes: half, newton on, omp
      pair build: half/bin/newton/omp
      stencil: half/bin/3d
      bin: standard
Per MPI rank memory allocation (min/avg/max) = 9.235 | 9.237 | 9.241 Mbytes
Step Temp PotEng TotEng E_pair E_mol Press Lx Ly Lz Volume Pxx Pyy Pzz Pxy Pxz Pyz Enthalpy 
15250000    265.27023   -3846.9752   -3392.3111   -3846.9752            0    5890.0131    17.136511    20.184547    20.906504    7231.4071    5034.4245     7021.167    5614.4478    81.834678   -204.77467   -163.53295   -2771.1347 
15251000    260.77543   -3881.1553   -3434.1952   -3881.1553            0     6259.463    17.107581    20.150471    20.871209    7194.8443    5870.5272    5611.9763    7295.8854    405.61175    210.67416     163.5832   -2777.3933 
15252000    259.12634   -3882.2429   -3438.1092   -3882.2429            0    7596.0172    17.068914    20.104926    20.824035    7146.1687     9152.888    5636.1441    7999.0196   -35.039339   -792.30845    968.21201   -2646.4558 
15253000     268.1421   -3892.4815   -3432.8951   -3892.4815            0    7117.1151    17.056085    20.089815    20.808383     7130.067    6987.4506     7437.096    6926.7986    1699.4758    333.71295   -319.19279   -2692.8239 
15254000    244.49424   -3880.6532   -3461.5984   -3880.6532            0    6971.6322    16.963668    19.980961    20.695636    7014.7939    7126.0117    6905.3198    6883.5651   -1007.2588    989.25269    397.14489   -2748.3755 
15255000    272.82148   -3889.3925   -3421.7858   -3889.3925            0    6866.6434     16.97649    19.996063    20.711279    7030.7124    6482.6561    7572.7063    6544.5676   -5.8488928   -557.44169   -787.78469   -2717.7095 
15256000    262.50611   -3871.7348   -3421.8083   -3871.7348            0    6031.7395    16.976783    19.996408    20.711636    7031.0759    6384.8326    5883.3042    5827.0816    873.87667   -622.05812    1692.0962   -2803.3075 
15257000    252.13198   -3862.2828   -3430.1372   -3862.2828            0     9833.372    16.930596    19.942006    20.655288     6973.846    10424.421     10543.41    8532.2849    132.22671   -369.32146     2761.165   -2430.0204 
15258000     278.3241   -3897.4505   -3420.4125   -3897.4505            0    8066.7647    16.957111    19.973237    20.687636     7006.662    7570.2849    8140.3834    8489.6257    711.93398    670.10657   -796.35081   -2596.1103 
15259000    275.12195   -3863.4263   -3391.8767   -3863.4263            0    7651.9409    17.030485    20.059662    20.777152     7098.011    8743.3182    7286.2002    6926.3041    1052.9486    1273.5072    1192.3333   -2599.7691 
15260000    262.34874   -3864.2913   -3414.6345   -3864.2913            0    7794.9357     17.01865    20.045722    20.762714    7083.2233    7332.9712    7553.6291    8498.2067    1836.2844   -1996.0709    1551.3885   -2609.4056 
15261000    273.58034    -3889.873   -3420.9657    -3889.873            0    7224.1394    17.067924     20.10376    20.822827    7144.9248    6809.4252    7783.2169    7079.7761   -1094.7009   -837.91995    403.76603   -2668.2003 
15262000    263.16889   -3822.6713   -3371.6088   -3822.6713            0     6817.267    17.093867    20.134318    20.854478    7177.5557    7691.3448      7018.97    5741.4863   -1174.7373   -1956.2258    567.03598   -2657.9958 
15263000    261.25235   -3808.7814   -3361.0038   -3808.7814            0    8641.9029     17.06036     20.09485    20.813599    7135.4299    8696.9015    9890.2406    7338.5666    3.5776058    565.94393   -357.06542   -2461.7021 
15264000    262.57432   -3871.7119   -3421.6685   -3871.7119            0    9037.7001    16.996107    20.019169    20.735211     7055.113    8515.3358    8609.0519    9988.7125    23.533108   -460.61253     1445.684   -2491.7652 
15265000    263.15032   -3866.5852   -3415.5545   -3866.5852            0    6622.5384    16.996911    20.020116    20.736192    7056.1144    7686.3526    6738.1054    5443.1572     876.6107   -588.06111   -672.07848   -2734.0543 
15266000    267.37904   -3881.5111   -3423.2326   -3881.5111            0    8030.9242     16.97654    19.996122    20.711339     7030.774    9442.2741    7562.8329    7087.6656   -1775.5618    971.45311    20.795661   -2599.7687 
15267000    258.26813   -3878.6331   -3435.9704   -3878.6331            0    7964.7575    16.991101    20.013272    20.729103    7048.8801    8838.8699    6977.2817    8078.1211    485.07649   -272.98662    4.9555104   -2617.1878 
15268000    244.15916   -3880.4722   -3461.9918   -3880.4722            0    7092.9718     17.00817    20.033378    20.749928    7070.1457    7387.3453    7590.7212    6300.8489   -1184.3623   -237.17177    840.41795   -2730.6296 
15269000    258.54226   -3867.2342   -3424.1016   -3867.2342            0    10328.819    16.924419     19.93473    20.647752    6966.2153    10618.722     12163.93    8203.8058   -101.28892   -390.39065    310.02409   -2374.7441 
15270000    253.31497   -3874.2516   -3440.0784   -3874.2516            0    6227.1879    16.957133    19.973263    20.687663    7006.6897    6600.4715    6730.8567    5350.2354    -586.7816   -463.03808   -784.25053   -2803.7508 
15271000    259.53463   -3887.6331   -3442.7996   -3887.6331            0    5229.1961    17.033639    20.063377       20.781    7101.9554    4695.2618    7430.7726    3561.5538    545.22364   -1095.5793   -822.18718    -2901.187 
15272000    271.02496   -3861.9001   -3397.3726   -3861.9001            0    9592.9976    16.927916    19.938849    20.652018    6970.5346    9222.6171    11475.917    8080.4584   -441.57403   -267.95165    834.79738   -2422.1668 
15273000    248.27667   -3870.5795   -3445.0418   -3870.5795            0    8638.0084    16.941612    19.954982    20.668727    6987.4676    7633.9123    7683.0963    10597.017    397.19821    557.85129    168.86256   -2564.7851 
15274000    276.92981   -3837.8635   -3363.2153   -3837.8635            0    7949.1175    16.954578    19.970254    20.684546    7003.5232    6890.1704    9615.2741    7341.9081    1890.7913    -445.1623   -834.04536   -2551.2987 
15275000    261.34308   -3865.2906   -3417.3575   -3865.2906            0    7866.7534    17.013766    20.039969    20.756755    7077.1269    7309.8743    8441.9852    7848.4007   -248.33241    69.987289     140.0677   -2605.4091 
15276000    277.83815   -3858.6962   -3382.4912   -3858.6962            0    5402.3938    17.126246    20.172456     20.89398      7218.42    6151.7265    5350.2896    4705.1655     67.95466   -791.65346    204.24715   -2813.7636 
15277000     269.1837   -3855.3647   -3393.9931   -3855.3647            0    7096.7572    17.052352    20.085418     20.80383    7125.3871    7397.0863    7615.1486    6278.0367    92.013326   -1697.3049   -1128.8545   -2656.5232 
15278000    261.96958   -3892.6251   -3443.6182   -3892.6251            0    8877.6846    16.990426    20.012477     20.72828    7048.0404    9744.7648    8422.6394    8465.6495    574.86025   -974.81264   -649.19081   -2531.0949 
15279000    249.72715   -3893.5431   -3465.5193   -3893.5431            0    8757.3539    16.995666     20.01865    20.734673    7054.5638    8405.2223    9186.6073     8680.232   -65.109059     977.4889    1330.4345   -2564.5314 
15280000     262.5241   -3854.0716   -3404.1142   -3854.0716            0    6469.5272    16.989418     20.01129     20.72705    7046.7864     6751.892     6783.012    5873.6775   -306.82785    303.36476   -427.92863   -2739.2399 
15281000    271.17551   -3851.3215    -3386.536   -3851.3215            0    7002.0346    17.089054    20.128648    20.848606    7171.4943    5700.3971    8054.8572    7250.8494    -1076.712    -738.9298   -1359.0939    -2654.201 
15282000    256.42915   -3860.5922   -3421.0814   -3860.5922            0    7753.2795    17.002091    20.026217    20.742511    7062.5672    8860.2438    6787.4888    7612.1057   -1371.5415    1721.8426   -1257.1141   -2622.4913 
15283000    280.09197   -3883.0556   -3402.9875   -3883.0556            0    9035.8219    17.014679    20.041045    20.757869    7078.2662    11160.695    7341.8309    8604.9399   -203.68417     95.01429   -929.82154   -2470.2264 
15284000    252.08815   -3889.4149   -3457.3445   -3889.4149            0    5201.0875    17.072663    20.109341    20.828609    7150.8779    5131.9551    5209.2982    5262.0093   -1428.3339    536.97349     66.99872   -2914.9323 
15285000    249.72884   -3881.8052   -3453.7785   -3881.8052            0    8119.8518    16.924497    19.934822    20.647847    6966.3114     8247.383    8288.7954    7823.3769   -1841.1832    185.58988    116.64318   -2628.8299 
15286000    258.29751   -3870.1751    -3427.462   -3870.1751            0    9923.4328    16.955591    19.971447    20.685782    7004.7787      8943.79    10739.301    10087.207   -547.31147    218.01545   -1526.2535   -2413.7088 
15287000    263.18462   -3853.5272   -3402.4377   -3853.5272            0    8482.1108    17.024853    20.053027     20.77028    7090.9703     8252.154     7923.587    9270.5914   -884.84742    426.32213    -716.1068   -2525.2642 
15288000    259.55459   -3841.3861   -3396.5184   -3841.3861            0    6900.8791    17.062087    20.096885    20.815707    7137.5977     6567.207    6221.5901    7913.8402   -1130.4099    294.61847   -1304.5746   -2678.1746 
15289000    258.49368   -3864.0368   -3420.9874   -3864.0368            0    8415.6616     17.06771    20.103507    20.822566     7144.656    8997.5596    8045.2966    8204.1288   -348.26702    1234.7806    1409.2404   -2544.0967 
15290000    256.52762   -3843.6065   -3403.9269   -3843.6065            0    8354.0415    16.991289    20.013494    20.729332     7049.114    6834.6129    9510.6059    8716.9057   -377.70519    1336.3427    1120.7555   -2545.0972 
15291000    254.78674   -3860.7829   -3424.0872   -3860.7829            0    7545.9215    17.017507    20.044376    20.761319    7081.7964    7892.0718    7968.6381    6777.0546   -218.46797   -1421.1532     64.32591   -2644.7388 
15292000    266.46549   -3877.9381   -3421.2254   -3877.9381            0    8248.2337    16.960735    19.977505    20.692057    7011.1549    6737.7955    9648.7078    8358.1978    574.32301     1267.586    1781.4116   -2577.8394 
15293000    254.01223   -3838.9462   -3403.5779   -3838.9462            0    6834.7295    17.088223    20.127669    20.847592    7170.4477    7829.3379    6581.6747    6093.1759    185.58694   -220.12118    1359.6798   -2688.8455 
15294000    262.64443   -3877.0511   -3426.8875   -3877.0511            0    7171.2068    17.046402     20.07841     20.79657    7117.9307     7081.213    6905.0835    7527.3238   -806.86762    292.93861   -276.59424   -2682.4609 
15295000    250.38168    -3899.929   -3470.7834    -3899.929            0    7726.7176    17.073791    20.110671    20.829985     7152.296    8806.1382    7081.1657    7292.8488   -187.30028    904.85936   -254.58214    -2664.818 
15296000    264.08455   -3846.7889   -3394.1571   -3846.7889            0    8762.4212    16.988239    20.009901    20.725611    7045.3187    9016.4576    9229.4347    8041.3714    209.55004    1235.9293    286.17458   -2493.8293 
15297000    260.20704    -3884.584   -3438.5981    -3884.584            0    8112.0987     17.00869     20.03399    20.750561    7070.7934    8897.1158    7983.2547    7455.9257    365.14769    1318.7492    350.43697   -2602.0763 
15298000    271.27546   -3864.3475   -3399.3906   -3864.3475            0    9383.7682    17.001453    20.025466    20.741734    7061.7728     11335.06    8269.1692    8547.0757    82.856232    1366.1237   -154.72897   -2432.9684 
15299000    269.56315   -3867.5714   -3405.5494   -3867.5714            0    8596.8534    17.045636    20.077508    20.795637    7116.9718    6636.5492    10371.715    8782.2957   -1548.7659   -726.03563    1207.7255   -2513.2498 
15300000    259.42815    -3887.411     -3442.76    -3887.411            0    8574.1083    17.018501    20.045546    20.762531    7083.0364    9034.4862    7790.6408    8897.1979    666.80806    640.94222    1267.0822   -2557.0647 
15301000    270.57378   -3849.8634   -3386.1092   -3849.8634            0    8872.5323    16.979844    20.000013     20.71537    7034.8795    8751.2013    9006.9952    8859.4003    825.85615     272.6007     712.3322   -2475.8185 
15302000    257.01819   -3862.0144    -3421.494   -3862.0144            0      8747.66    17.006084    20.030921    20.747383    7067.5449     8557.059    10703.775    6982.1462     1658.735   -292.67877   -276.06663   -2519.8474 
15303000    260.32694   -3893.4739   -3447.2824   -3893.4739            0     8496.177    16.985539    20.006721    20.722318    7041.9606    10324.116    7929.9508    7234.4643    89.097323     1050.187   -806.48072    -2574.727 
15304000    267.10457   -3853.4153   -3395.6072   -3853.4153            0    7647.9284    17.000769    20.024661    20.740899    7060.9203    6805.6735    8088.4179    8049.6939    792.78279   -367.46122    128.43211    -2608.052 
15305000    258.55726   -3866.9464   -3423.7881   -3866.9464            0    10312.823    16.965813    19.983486    20.698252    7017.4541    10389.956    10102.763    10445.751   -222.01634    69.187674   -1029.1112   -2368.3493 
15306000    265.87756   -3832.8966   -3377.1916   -3832.8966            0    8990.4669    16.977598    19.997368     20.71263    7032.0883    9026.6971    9720.5007    8224.2029   -1221.0454    740.42849   -2082.2889   -2455.1671 
15307000    255.97543   -3872.7294   -3433.9963   -3872.7294            0    7070.2617     17.05478    20.088278    20.806792    7128.4311     8483.544    7523.2629    5203.9784    910.69316     1752.264   -1120.8557   -2698.9659 
15308000    252.52079   -3852.3223   -3419.5104   -3852.3223            0    7519.4237    16.990079    20.012069    20.727856    7047.6085    7010.6746    8727.9197    6819.6767    1571.6538    84.745967    80.478418   -2646.6479 
15309000     262.3042   -3852.9772   -3403.3967   -3852.9772            0    8514.5749    17.058988    20.093235    20.811925    7133.7088    9305.7372    8487.7274    7750.2601   -999.95131    -936.7479    -1548.271   -2517.5589 
15310000    263.73569    -3892.525   -3440.4911    -3892.525            0    7039.9948    17.090638    20.130514    20.850538    7173.4882    6948.5562    7596.5466    6574.8815    609.95343   -1125.9877   -314.61435   -2703.9811 
15311000    256.83684   -3845.7919   -3405.5824   -3845.7919            0    7514.8152    17.042711    20.074063    20.792068    7113.3086    4588.1645     9456.248    8500.0332    860.85421     660.9709   -62.019316   -2625.9931 
15312000    275.27443    -3852.816    -3381.005    -3852.816            0    7016.8022    17.069918    20.106109     20.82526    7147.4297    6455.4541    8674.3203    5920.6323    380.25227   -142.10074   -497.73691   -2649.5881 
15313000    270.23502   -3811.2398   -3348.0662   -3811.2398            0    8934.6327    17.039419    20.070185    20.788051     7109.187    9507.3313    9117.0323    8179.5346    289.41691    1802.1043    176.19023   -2421.7217 
15314000    272.17877   -3875.3569   -3408.8518   -3875.3569            0    6291.8838    17.061941    20.096713    20.815528    7137.4143    5132.5961    5680.0131     8063.042     1109.818    1303.6162   -1386.0001   -2753.9179 
15315000    255.06226   -3882.4584   -3445.2904   -3882.4584            0    7139.6387       17.041    20.072047    20.789981    7111.1664    5968.2265    8152.8366    7297.8528   -1273.2043    341.31246   -415.21933   -2704.8452 
15316000    278.93721   -3874.4568    -3396.368   -3874.4568            0    9252.5285    17.044706    20.076413    20.794502    7115.8069    10130.979    9026.8615    8599.7454   -1104.6657   -900.04472    83.894661   -2436.1707 
15317000    239.08231   -3875.5323   -3465.7534   -3875.5323            0      9449.16    17.027307    20.055919    20.773275    7094.0381    8912.0588    11116.875    8318.5459   -1128.8397    1193.3515    464.96687   -2488.1503 
15318000    266.41585   -3874.3484   -3417.7207   -3874.3484            0    7038.1586    17.044393    20.076044     20.79412    7115.4147     7408.851    5121.7859    8583.8388    1240.3097    997.01859    155.93176   -2687.3638 
15319000    252.42063   -3878.0981   -3445.4578   -3878.0981            0     7803.188    17.031755    20.061158    20.778701    7099.5985    6223.5287    8384.2955    8801.7398    943.73036   -804.40444   -312.89962   -2637.5129 
15320000    262.74251   -3849.0845   -3398.7528   -3849.0845            0     7425.743    17.010294    20.035879    20.752519    7072.7946    6053.3355     7834.499    8389.3946    1720.8604    -532.6693    767.57974   -2632.7915 
15321000    267.69607   -3864.3909   -3405.5689   -3864.3909            0    5543.2618     17.11175    20.155382    20.876296    7200.1062    5109.0128    5594.2238    5926.5487   -1150.3015   -143.77085    794.59743   -2823.4923 
15322000    283.88532   -3830.9254   -3344.3557   -3830.9254            0    7301.7266    16.961793    19.978751    20.693348    7012.4673    6707.2249    5898.7345    9299.2203    629.62414    1317.4822    613.73626   -2597.6107 
15323000    249.70938   -3869.1486   -3441.1553   -3869.1486            0    8351.1876     16.99687    20.020068    20.736142    7056.0632    6462.5188    9510.5626    9080.4814   -1670.8027   -361.77026     998.7875   -2581.7726 
15324000    256.63172    -3854.405   -3414.5471    -3854.405            0    10884.819    16.938501    19.951316    20.664931    6983.6182    11099.653    10039.353    11515.452    1432.4016    1074.7618    1617.1803   -2305.9401 
15325000     264.0086   -3877.4522   -3424.9505   -3877.4522            0    7629.0825    16.974543     19.99377    20.708903    7028.2933    7798.9696    8148.7493    6939.5285   -1528.7365   -689.66552   -696.79862   -2642.9661 
15326000    262.27448   -3891.4911   -3441.9616   -3891.4911            0    6843.8788    17.122447    20.167981    20.889345     7213.617    4764.3851    7906.1076    7861.1437   -849.46867  -0.61152002    424.48932   -2721.9636 
15327000    259.99397   -3892.7691   -3447.1483   -3892.7691            0    7979.6351    17.023013    20.050861    20.768036    7088.6722    6472.6589    7959.6259    9506.6205    518.77257    1210.0361   -655.58167   -2622.2056 
15328000    277.58107   -3852.4372   -3376.6727   -3852.4372            0    8912.3083    17.038728    20.069371    20.787209    7108.3225    9541.1274    9561.4502    7634.3473   -1109.7936     345.5301   -182.78857   -2452.7552 
15329000    264.76148   -3888.3453   -3434.5532   -3888.3453            0    8444.5436    17.034827    20.064776    20.782449    7103.4407    9035.9228    9495.4646    6802.2435    36.866587    -25.05667    1138.5527   -2559.7289 
15330000    275.10767   -3856.2583   -3384.7332   -3856.2583            0    9093.8454    17.034905    20.064868    20.782544    7103.5387    9549.4944    9131.5677    8600.4742    502.63601   -405.04909   -577.39643   -2442.6306 
15331000    249.95712   -3838.1702   -3409.7523   -3838.1702            0    8270.6431    17.066413    20.101981    20.820984    7143.0283    9577.7534    8901.7345    6332.4412    641.69308   -532.59934   -624.53937   -2548.1685 
15332000    254.79544   -3890.1674   -3453.4568   -3890.1674            0    8270.8448    17.098935    20.140286     20.86066    7183.9408    8194.0153    7573.1409    9045.3783    859.88781   -804.38699   -1740.9806    -2586.917 
15333000     245.4538   -3873.4566   -3452.7571   -3873.4566            0    7745.4899    17.096486    20.137403    20.857673    7180.8554    8588.3496    7197.1064    7451.0136    202.08542   -1315.4362    610.91804   -2641.6075 
15334000    283.54394   -3869.3892   -3383.4046   -3869.3892            0     7201.609    16.989758    20.011691    20.727465    7047.2094    7974.4636    7554.3208    6076.0427    550.49916   -3226.0629   -276.84992   -2643.2497 
15335000    258.23312   -3875.5086   -3432.9059   -3875.5086            0    6923.4962    16.957195    19.973335    20.687738    7006.7659    7155.1277    6316.1859     7299.175   -107.02473    833.42549   -1663.4278   -2725.4181 
15336000    270.80021    -3889.863   -3425.7207    -3889.863            0    7919.6304    16.965155    19.982711    20.697449    7016.6376    8631.0153    7635.7347    7492.1411     1074.946    -404.0915   -248.15706   -2615.3013 
15337000    258.23686   -3886.3201    -3443.711   -3886.3201            0     5776.857    16.959312     19.97583    20.690321    7009.3913    6635.1597    5352.9236    5342.4878    283.28586     1289.994   -356.06507   -2853.1731 
15338000    259.65067   -3841.1232   -3396.0909   -3841.1232            0    7545.2973    17.045551    20.077408    20.795533    7116.8651    9274.3591    4867.8113    8493.7215    673.46679    86.199583   -55.747829    -2612.948 
15339000    251.18911   -3897.5414   -3467.0119   -3897.5414            0    8306.9113    17.007744    20.032876    20.749408    7069.6148    8722.6953    9151.7729    7046.2658    723.65336    607.80118    159.17461   -2610.5437 
15340000     263.1598   -3903.1304   -3452.0835   -3903.1304            0    7905.1575     17.05116    20.084014    20.802375    7123.8923    10511.768    7138.7714    6064.9326   -25.815562    753.90564   -811.76193   -2630.7799 
15341000     258.8248   -3891.5034   -3447.8865   -3891.5034            0    10492.334    16.949874    19.964712    20.678806    6997.6947    10631.253    8856.3829    11989.366    1163.4685    293.05833   -1344.9129   -2377.0998 
15342000    266.10301   -3867.4068   -3411.3154   -3867.4068            0    7588.1619    17.021281    20.048821    20.765923    7086.5085    7754.6229    5980.7341    9029.1289    2156.7598   -1414.8767    128.69914    -2627.083 
15343000     253.6371   -3908.4832   -3473.7579   -3908.4832            0    6511.8417     17.05602    20.089739    20.808305     7129.986    7982.9619     5343.883    6208.6802   -1205.7286    -2029.938   -242.42856   -2796.6336 
15344000    255.20479   -3883.4795   -3446.0672   -3883.4795            0    8449.6566    16.977392    19.997125    20.712379    7031.8325    9519.1745    7196.1345     8633.661   -611.45396   -52.380605   -1915.4553   -2579.5374 
15345000    272.16333   -3918.6289   -3452.1503   -3918.6289            0    6913.6371    17.009355    20.034774    20.751374    7071.6238    6591.5477    5463.7635    8685.6002   -656.75057    1305.3918    675.39483   -2739.1304 
15346000    276.99293   -3886.2584    -3411.502   -3886.2584            0    6606.1838    17.057997    20.092067    20.810716    7132.4654    5909.1009    7429.7807    6479.6699    178.95859     2028.414   -385.91323   -2724.3288 
15347000    262.71546   -3868.5256   -3418.2403   -3868.5256            0     7936.586    16.968593    19.986762    20.701644    7020.9054    9807.3992    6148.8896    7853.4691   -233.78846   -452.81745    204.74499   -2605.5918 
15348000    246.59286    -3890.013   -3467.3613    -3890.013            0    6741.4808    17.012808     20.03884    20.755586    7075.9307    3817.4318    9612.4386     6794.572   -705.42797    239.81387    135.07862   -2771.6729 
15349000    264.07616   -3855.2008   -3402.5833   -3855.2008            0    9185.1977    16.942427    19.955941    20.669721    6988.4755    7552.5825    11096.333    8906.6774     269.3441    284.53613    395.87291   -2466.4302 
15350000    251.89712    -3862.098    -3430.355    -3862.098            0    8601.4714    16.944152    19.957973    20.671826    6990.6109    7730.5945    11150.329    6923.4905   -1762.6731    625.34182    1582.9525   -2553.4273 
15351000    249.84177   -3854.1188   -3425.8985   -3854.1188            0    8323.8828    16.925865    19.936433    20.649516    6968.0009    8126.0534    7490.9605    9354.6345     326.5837    231.23523   -2220.9017    -2580.016 
15352000    262.11665   -3841.6763   -3392.4173   -3841.6763            0    6721.0875      17.0572    20.091129    20.809744    7131.4662    6718.9994    5471.1206    7973.1425    595.11193    410.19344   -222.03057   -2693.3898 
15353000    261.28182   -3851.6533   -3403.8252   -3851.6533            0    8501.6038    17.003283    20.027621    20.743965    7064.0524    10314.632    7013.3838    8176.7954    1741.3029   -594.99333    420.93673   -2527.9733 
15354000     246.8263   -3856.4815   -3433.4297   -3856.4815            0    8331.1273    16.974437    19.993645    20.708774    7028.1618    7415.6638      9712.43    7865.2882    1078.2404   -354.40738     871.0846   -2579.5014 
15355000    271.15656   -3893.1044   -3428.3513   -3893.1044            0    8172.2251    17.058076    20.092161    20.810813    7132.5651    7844.0895    7829.8046    8842.7811   -1560.5195    108.29034    1274.7679   -2578.2671 
15356000    257.84549   -3906.4031   -3464.4648   -3906.4031            0    8415.8495    16.979993    20.000189    20.715552    7035.0651    8991.6301    7122.1569    9133.7615   -838.84066     457.5569    -529.2309   -2601.0053 
15357000    267.29134   -3912.3787   -3454.2505   -3912.3787            0    7953.3261    16.973496    19.992536    20.707625    7026.9925    9116.4177    6461.8883    8281.6723    656.50743    36.679902     22.47073   -2639.1819 
15358000    257.59283   -3863.2505   -3421.7452   -3863.2505            0    8538.8639    17.052069    20.085085    20.803484     7125.032     9122.393    7816.0784    8678.1203    40.299118    585.88227     1063.502   -2534.4609 
15359000    253.13169   -3875.8146   -3441.9555   -3875.8146            0    8194.3275    17.038725    20.069368    20.787205    7108.3186    9238.3364    7047.3301     8297.316   -1305.4556     809.3718    1012.9915   -2592.4698 
15360000    255.97604   -3856.1158   -3417.3817   -3856.1158            0    6026.0797    17.086055    20.125116    20.844947    7167.7193    6430.2884    7125.9625    4521.9882    1147.5612    1765.5088   -93.196465   -2787.4524 
15361000    258.54902   -3850.7879   -3407.6437   -3850.7879            0    7856.4505    17.038832    20.069493    20.787335    7108.4521     8179.795    7783.3348    7606.2218    101.05435    2455.0292   -333.36949   -2593.1696 
15362000    253.20071   -3841.9385   -3407.9611   -3841.9385            0    8041.4259     17.05165    20.084592    20.802973    7124.5074    7476.7066    8008.8574    8638.7137   -444.47689   -469.87484   -535.25783   -2572.4278 
15363000    263.35452   -3871.9043   -3420.5236   -3871.9043            0    7237.9389    17.004056    20.028532    20.744908    7065.0161    8143.5046    5792.6991     7777.613    1962.4276    980.27878    1710.3645   -2674.7552 
15364000    274.64562   -3827.3636   -3356.6304   -3827.3636            0    7288.9167    17.054789    20.088289    20.806803    7128.4425    6990.3268    6407.8666    8468.5568   -1293.5972   -1141.3838    636.84465   -2598.8672 
15365000    275.33796   -3851.6853   -3379.7655   -3851.6853            0    8663.6758    17.058288     20.09241    20.811072    7132.8309    11469.603    6602.9346    7918.4894   -107.47881   -85.326783    423.62843   -2478.5264 
15366000    262.21828   -3886.8188   -3437.3856   -3886.8188            0    7398.1075    16.995085    20.017965    20.733964    7053.8403    6056.6141    8768.4859    7369.2224   -90.311461   -726.29821    1743.9032   -2676.3199 
15367000    262.59502   -3887.2595   -3437.1807   -3887.2595            0    7522.3373    16.997024    20.020249    20.736329    7056.2546    7693.4184    7268.3541    7605.2393    1852.8891    845.08587    554.54236   -2663.0702 
15368000    248.98503    -3852.794   -3426.0421    -3852.794            0     7051.904    17.031344    20.060674      20.7782    7099.0851    6749.8115    8434.9737    5970.9268   -402.77771    1420.4196    460.03919   -2695.9382 
15369000    267.58083   -3831.2617   -3372.6373   -3831.2617            0    10205.892    16.981461    20.001918    20.717343    7036.8897    11678.183    8200.6395    10738.854    2223.0109     1775.627     394.7003   -2325.2492 
15370000    262.53535   -3867.5825   -3417.6059   -3867.5825            0    7904.2197    17.061989    20.096769    20.815587    7137.4744    6720.7603     10616.88    6375.0194    1131.9703   -2315.8333    620.93987    -2594.834 
15371000    270.52785   -3893.3659   -3429.6904   -3893.3659            0    7797.4362    17.090802    20.130707    20.850738     7173.695    8210.4404    9089.0552     6092.813    163.23575    584.23432     907.1901    -2613.915 
15372000    279.82352   -3864.4953   -3384.8874   -3864.4953            0    6203.0016     17.05791    20.091965     20.81061    7132.3567    7418.3026    6493.4392     4697.263   -1178.3805    441.13339   -379.56005   -2739.6629 
15373000    246.90079   -3885.1507   -3461.9712   -3885.1507            0    7597.9726     16.98407    20.004992    20.720526    7040.1342    7862.1706    9287.2668    5644.4804      204.303   -743.22555   -1210.7561   -2681.8635 
15374000    267.09772   -3858.2743   -3400.4779   -3858.2743            0    6294.8995    16.975353    19.994723    20.709891    7029.2991    5777.3646    7522.3888     5584.945   -1904.9969    1237.9999   -1511.1726   -2755.1556 
15375000    267.13998   -3834.1584   -3376.2896   -3834.1584            0    8350.1486    16.948186    19.962724    20.676747    6995.6045    8851.5887    8697.4428    7501.4144    939.99868    1297.9566    824.74135   -2524.3764 
15376000    266.64075   -3873.7646   -3416.7515   -3873.7646            0    7543.1257    16.971383    19.990048    20.705048    7024.3687    7682.3542    8109.0037    6838.0192    1107.6953    748.13945    731.20013   -2644.0094 
15377000    271.87986   -3886.8967   -3420.9039   -3886.8967            0    6839.3254    17.022804    20.050614    20.767781    7088.4105    6301.2499    8211.4399    6005.2865   -566.62498   -1428.9773    513.80703   -2713.8736 
15378000    258.20944   -3861.3731   -3418.8109   -3861.3731            0    8101.2458    17.043514    20.075008    20.793047    7114.3135    8545.8928    9288.2609    6469.5838    630.16781    -969.7501    917.55284   -2578.2664 
15379000    275.08598   -3870.0006   -3398.5127   -3870.0006            0    8075.4859    17.075636    20.112843    20.832236    7154.6143    6119.2861    7474.5775    10632.594   -712.46731   -63.388718      1817.98   -2555.8946 
15380000    257.20865   -3908.8827   -3468.0358   -3908.8827            0    8578.0486    17.086386    20.125506    20.845351     7168.136    8037.3712    9180.3837    8516.3909    2008.5909    418.16419   -1213.1415   -2571.2874 
15381000    261.91513   -3919.4389   -3470.5253   -3919.4389            0    8604.1296    17.063798      20.0989    20.817794    7139.7452    9316.4751    7510.4989    8985.4147   -257.78774   -376.74391     1111.675   -2574.6129 
15382000    272.62978   -3860.6565   -3393.3784   -3860.6565            0     8092.284    17.042951    20.074345     20.79236    7113.6083    7311.6525    8005.9753    8959.2242    272.35922   -127.26801   -50.709931    -2553.847 
15383000    257.09591   -3876.7648   -3436.1112   -3876.7648            0    6634.2011    17.033005     20.06263    20.780226    7101.1615    6006.6006    6324.9622    7571.0404     1452.498   -672.96236    1231.3637   -2749.0524 
15384000    255.35534   -3901.6663    -3463.996   -3901.6663            0    7241.1608    17.041658    20.072822    20.790783    7111.9895    6088.0902    7693.0239    7942.3683   -509.57866   -1305.6298    441.57166    -2712.935 
15385000    244.90469    -3899.119   -3479.3608    -3899.119            0    5981.3592    17.075344      20.1125     20.83188    7154.2482    6184.8775    6220.7415    5538.4586   -1057.4853   -638.72075   -873.43346   -2855.2815 
15386000    266.23105   -3890.6066   -3434.2957   -3890.6066            0    7491.2259    17.111592    20.155195    20.876102    7199.9058    9931.4655    6751.0763     5791.136   -181.52179   -212.07431    711.16671   -2647.6927 
15387000    275.44642   -3904.2432   -3432.1374   -3904.2432            0    8654.7455     16.99972    20.023424    20.739618    7059.6128    8853.7545    7168.5198    9941.9624   -520.80722   -1340.5519   -997.61521    -2541.069 
15388000    272.37203   -3878.1443    -3411.308   -3878.1443            0    8872.0495    16.950251    19.965157    20.679267    6998.1622    7518.9918    11611.475     7485.682      376.469   -665.51698   -2876.6199   -2505.8176 
15389000    252.27849   -3895.7049   -3463.3082   -3895.7049            0    8228.6357     16.96292    19.980079    20.694722    7013.8649    9979.7619    6690.6244    8015.5209   -864.42325    274.35605   -2729.1553   -2621.6009 
15390000    274.17691   -3876.1522   -3406.2224   -3876.1522            0     8957.372    17.024839    20.053012    20.770264    7090.9534    8668.4767     7620.842    10582.797   -978.20437    994.44646    2481.1746   -2479.9022 
15391000    255.65756   -3873.4101   -3435.2218   -3873.4101            0    7088.1965    17.044281    20.075912    20.793983    7115.2744     6976.528      8269.52    6018.5414    -99.83621    798.52641     117.0372   -2699.6869 
15392000    262.07454   -3878.3248    -3429.138   -3878.3248            0    7542.8009    16.988059     20.00969    20.725393    7045.0958    8896.1216    6776.5793    6955.7017    155.21517    -594.0358   -632.18781   -2654.1492 
15393000    259.19989   -3871.3234   -3427.0636   -3871.3234            0    7555.6327    17.027406    20.056035    20.773395     7094.161    9112.4275    6477.0853    7077.3853   -9.2832275   -1748.5915   -408.33886   -2645.3499 
15394000     252.8968   -3854.1706   -3420.7142   -3854.1706            0    8584.9388    16.981669    20.002163    20.717597    7037.1484    10092.684    8314.5436     7347.589   -339.84892   -933.85645    337.67361   -2539.6454 
15395000     262.5894   -3864.4364   -3414.3672   -3864.4364            0    7488.3421    17.108886    20.152007      20.8728    7196.4905    7571.8208    7445.5889    7447.6165    -359.2544   -849.61558    243.10783     -2628.44 
15396000    249.91475    -3898.568   -3470.2226    -3898.568            0    6783.1267     17.05821    20.092318    20.810976    7132.7327    6129.4596     8832.616    5387.3044     829.9163    312.66643   -259.29061   -2764.6174 
15397000     253.9569   -3899.7954    -3464.522   -3899.7954            0    7271.2391     17.02059    20.048007     20.76508    7085.6459    8637.9577    6562.7555    6613.0042   -195.63795    132.32266   -662.75285   -2713.1348 
15398000    261.65691   -3925.6814   -3477.2104   -3925.6814            0    7854.6747    17.045862    20.077774    20.795912     7117.255    6384.9154     8103.172    9075.9367    564.76799   -1272.2938   -315.16896   -2661.9119 
15399000    270.10729   -3877.2126   -3414.2579   -3877.2126            0    7295.1846    17.041679    20.072846    20.790808    7112.0156    6430.9259    6891.3003    8563.3277     693.9955    282.45931     553.5234   -2657.5908 
15400000    266.03992   -3910.6692   -3454.6859   -3910.6692            0    7447.4375    17.042668    20.074012    20.792016     7113.255    8299.6118     6702.753    7339.9478   -666.31649   -2564.3111   -1279.3722   -2682.0922 
15401000    257.04928   -3850.3608   -3409.7871   -3850.3608            0    5578.5604    17.048087    20.080395    20.798626    7120.0418    5301.6465    6276.1949    5157.8396     413.3479    960.23566    1231.9796   -2830.5178 
15402000    253.22871   -3886.0455   -3452.0201   -3886.0455            0    9019.5813    16.934998     19.94719    20.660658    6979.2863    8546.2194    7961.8932    10550.631   -1243.3662    -1197.958     225.3295   -2533.9554 
15403000     259.8748   -3857.5828   -3412.1663   -3857.5828            0    9080.6085    16.956125    19.972075    20.686433    7005.4398    9124.4169    10064.732     8052.677   -451.53282   -436.72105    1555.1925   -2484.4264 
15404000    254.85992   -3906.7087   -3469.8875   -3906.7087            0    5971.1038    17.021421    20.048985    20.766093    7086.6829    4735.2267    5945.3788    7232.7061    198.02882   -196.68303    2124.5106    -2852.762 
15405000    253.26716   -3887.6225   -3453.5312   -3887.6225            0    7259.8315    17.014287    20.040582     20.75739    7077.7761    5520.4832    7777.3226    8481.6885   -264.27595    165.87038   -275.55934   -2704.1561 
15406000    238.51138    -3885.722   -3476.9217    -3885.722            0    8686.7741    16.993962    20.016642    20.732594    7052.4418    10198.546    9136.9921    6724.7844   -974.22675    -1213.505   -169.42127   -2583.4641 
15407000    247.13481   -3864.1729   -3440.5923   -3864.1729            0    7987.7518    17.080701     20.11881    20.838415    7160.9834    10148.657    7251.5698    6563.0283   -375.57336    623.53149    804.80329   -2606.3867 
15408000    268.15354   -3905.1404   -3445.5344   -3905.1404            0    8892.9818    17.017599    20.044484    20.761431    7081.9107    8277.7577    7773.3951    10627.793    -406.3277    761.70314   -985.92256   -2527.0459 
15409000    262.01315   -3892.8648   -3443.7832   -3892.8648            0    8223.9175    17.031209    20.060514    20.778035    7098.9156    6564.5187    11038.306    7068.9281    1117.1395   -449.64726    212.95445   -2592.3577 
15410000    280.10712    -3869.887    -3389.793    -3869.887            0    8261.4903    16.998473    20.021956    20.738097    7058.0594    7732.8808    7077.3112    9974.2789    1150.1268   -511.92483   -35.811802   -2539.4001 
15411000    258.00269   -3910.8341   -3468.6263   -3910.8341            0    5332.9429    17.049022    20.081496    20.799767    7121.2134    5899.1103    5165.9234    4933.7951    -695.3598   -67.323473    274.69522   -2914.7704 
15412000    248.77027   -3888.0117    -3461.628   -3888.0117            0    4944.5381    17.109373    20.152581    20.873395    7197.1052     5780.742    4571.3971    4481.4752     1284.705     428.1292    459.64602   -2942.6374 
15413000    265.30462   -3864.9861   -3410.2631   -3864.9861            0    9201.5037    16.978735    19.998707    20.714016    7033.5008    9863.5095    9458.0657    8282.9361    770.59879    418.74682     98.19882    -2466.406 
15414000    255.95693    -3855.324   -3416.6226    -3855.324            0    8703.0572    16.975413    19.994794    20.709964    7029.3737    9829.1095    7833.4786    8446.5835   -392.85966   -1062.2953    1030.1799   -2524.4182 
15415000    269.55714   -3860.5853   -3398.5736   -3860.5853            0    7015.7211    17.053377    20.086626     20.80508     7126.672    6926.0571    6798.1066    7322.9998   -857.79455   -141.84934   -365.05992   -2669.3932 
15416000    256.90422   -3832.6459   -3392.3209   -3832.6459            0     7079.426    17.023561    20.051507    20.768705    7089.3571    5860.9322    7967.4778     7409.868    887.01151   -868.11656   -630.58363   -2660.3719 
15417000    255.64893   -3890.4024   -3452.2288   -3890.4024            0    7309.8345    16.993255    20.015809    20.731731    7051.5614    9909.2726    5731.6509      6288.58    243.09885    1124.4778    427.42722    -2700.487 
15418000    276.22293    -3852.616   -3379.1794    -3852.616            0    7196.9448    17.083178    20.121727    20.841437    7164.0986    6612.2067    6735.7603    8242.8674    877.48302   -1313.3824    181.51672   -2627.2352 
15419000    257.07717   -3809.4997   -3368.8782   -3809.4997            0    8145.6196    17.055679    20.089337    20.807889    7129.5589    6847.0611     9319.217    8270.5808   -1242.3547    -83.60612   -302.31824   -2521.9186 
15420000    269.87629   -3886.0747    -3423.516   -3886.0747            0    5572.5613    17.105179    20.147641    20.868278    7191.8139    5654.0679    4256.1103    6807.5056    1140.2134   -1810.0026    -181.2497   -2839.0366 
15421000    268.70475   -3902.9473   -3442.3966   -3902.9473            0    6759.5631    17.098111    20.139316    20.859656    7182.9029    5684.2173    7386.1439    7208.3281    202.84264   -971.98554   -435.18902   -2734.2967 
15422000    260.34892   -3881.0995   -3434.8703   -3881.0995            0     8768.604    17.039252    20.069988    20.787848    7108.9779    11831.779    7142.9882    7331.0452     442.4618    984.34591   -819.82036   -2525.7664 
15423000    260.14902   -3873.0767   -3427.1901   -3873.0767            0    7872.3528     17.04826    20.080598    20.798837    7120.2586    10149.927    7616.5486    5850.5827   -2238.6579   -1067.1434   -566.72985   -2609.7119 
15424000    259.30484   -3882.3963   -3437.9567   -3882.3963            0    7567.6298    17.029228    20.058181    20.775618    7096.4389    6440.2265    8453.5846    7809.0783   -1156.5435    1224.2907   -369.30538   -2654.7503 
15425000    267.74021   -3859.9308   -3401.0332   -3859.9308            0    8016.6464    17.004564     20.02913    20.745529    7065.6498    9346.3711    8001.8926    6701.6753    637.25306    111.49444   -642.60328   -2574.9559 
15426000    265.37264    -3871.647   -3416.8074    -3871.647            0    8821.4646    16.975902    19.995371    20.710561    7029.9816    8404.1104    8991.5214     9068.762   -613.97573    1793.0882   -1379.5847   -2512.3861 
15427000    273.98817    -3869.172   -3399.5656    -3869.172            0    7210.6728     16.98763    20.009184    20.724869    7044.5614    7320.6803    6578.2422    7733.0958    1310.4165   -643.42837   -1010.6592   -2658.7577 
15428000    266.96365   -3858.4993   -3400.9327   -3858.4993            0     8500.986    16.968496    19.986647    20.701525    7020.7843    8946.8708    10389.559    6166.5279   -151.29884    -1428.725    54.379023   -2530.5088 
15429000    255.06266   -3850.4414   -3413.2727   -3850.4414            0    6006.0056     17.04419    20.075804    20.793871    7115.1597    5996.5255    5135.3614    6886.1299    923.71569   -1232.6941    229.85688   -2790.0457 
15430000    253.56226   -3861.7459   -3427.1488   -3861.7459            0    7012.6129     17.00365    20.028054    20.744413    7064.5103     8128.595    6752.3605    6156.8832    736.35651    -167.8437    828.83377   -2704.6489 
15431000    261.20389   -3854.4805    -3406.786   -3854.4805            0    8826.2574    16.987499     20.00903    20.724709    7044.3989     10418.98    6603.0947    9456.6977   -758.35943   -8.8640909    746.58868   -2500.0175 
15432000    275.47018   -3821.4872   -3349.3408   -3821.4872            0    7168.6382    17.018987    20.046118    20.763124    7083.6432    7324.5089    6979.7363    7201.6695    650.58028   -37.004992    783.25724   -2608.7655 
15433000    255.20382    -3843.455   -3406.0444    -3843.455            0    7343.2008    16.984484    20.005479    20.721031    7040.6485    8591.4451     6784.448    6653.7093    994.31759    1462.3385      138.133   -2652.0399 
15434000    254.99993   -3853.8256   -3416.7644   -3853.8256            0    6545.5424    16.918719    19.928016    20.640798    6959.1795    7260.4863    6132.5693    6243.5715   -794.97296    837.42029    346.39927    -2752.441 
15435000    267.80354   -3854.9459   -3395.9398   -3854.9459            0    6941.4193    16.988861    20.010635    20.726371    7046.0937    6940.8977    7655.1256    6228.2347   -161.86562   -109.41001    1022.1756   -2682.6392 
15436000    269.75107   -3831.8982   -3369.5542   -3831.8982            0    8499.1902    16.979776    19.999933    20.715287    7034.7949    9883.5202    8389.5901    7224.4604    1646.3094     910.1472   -1692.9679   -2497.5775 
15437000    256.20519   -3867.9394   -3428.8124   -3867.9394            0     7779.481    17.017613      20.0445    20.761448    7081.9282    8239.2028    8238.4931    6860.7471     216.1461   -524.63177   -1329.6084   -2625.3269 
15438000    282.81445   -3875.5615   -3390.8272   -3875.5615            0    8816.1069    16.977138    19.996826    20.712069    7031.5169    4780.2828    11579.466    10088.572    1447.3691   -249.38472   -304.72715   -2486.7578 
15439000    263.29896   -3913.5566   -3462.2712   -3913.5566            0    7287.2987    17.002552    20.026761    20.743074     7063.142    4944.8365    7912.3434    9004.7163   -657.14126    273.08481    1917.6297   -2711.6162 
15440000    268.80148   -3849.9649   -3389.2484   -3849.9649            0    9364.6966    16.995594    20.018564    20.734584    7054.4734    9544.6563    8718.6039    9830.8297   -849.39203    186.79099    1261.8298   -2425.7872 
15441000    260.84778     -3854.16   -3407.0758     -3854.16            0    8650.6489    16.978185    19.998059    20.713346    7032.8179    6898.8031    8540.2976    10512.846    481.04941    979.39774    153.33354   -2519.8096 
15442000    276.04346   -3891.2585   -3418.1294   -3891.2585            0    7513.6081     16.99947     20.02313    20.739313    7059.3011    8628.4325     8785.388    5127.0039   -2285.7507     1391.377    733.17259   -2644.5834 
15443000    256.60613   -3866.3765   -3426.5624   -3866.3765            0    8903.7247    17.031261    20.060576    20.778099    7098.9807    7911.9691    8471.4705    10327.735    246.55953   -238.74322    1288.5377   -2504.7477 
15444000    272.60881   -3892.8467   -3425.6045   -3892.8467            0    7962.9236    17.040867     20.07189    20.789818    7110.9991    10622.551    6585.5474    6680.6726    449.14246    1315.6701    1167.1035   -2599.7966 
15445000    252.26357   -3894.2778   -3461.9067   -3894.2778            0    7077.2122    17.026112    20.054511    20.771817    7092.5439    7151.8728    6657.8239    7421.9401    752.44755   -317.00643    282.01091   -2729.8577 
15446000      256.135   -3879.3717   -3440.3651   -3879.3717            0    7529.4427    17.018504     20.04555    20.762535    7083.0404    7870.4606    8160.5002    6557.3671     607.0803   -1453.9479    140.73893   -2662.5821 
15447000    257.88858   -3864.2981   -3422.2859   -3864.2981            0    7560.6697    17.041071    20.072131    20.790067    7111.2547    6946.8021    6517.6078    9217.5994   -15.263434   -1394.1422   -418.05211   -2638.1662 
15448000    268.48582   -3885.9711   -3425.7956   -3885.9711            0     7799.796     17.00885    20.034179    20.750758    7070.9941    7324.9023    7678.9809    8395.5048   -396.34996    202.63423    287.06348   -2621.4557 
15449000    272.55606   -3882.2277   -3415.0759   -3882.2277            0    7871.3571     17.05755    20.091541    20.810172    7131.9054    7100.3618    7801.2162    8712.4934     9.084068   -697.50245    940.50674   -2596.3641 
15450000    264.48197    -3890.124    -3436.811    -3890.124            0    7598.6471    17.136448    20.184472    20.906426    7231.3267    8546.4899    7003.9604    7245.4909   -495.76737   -51.489814    1269.5476   -2635.4464 
15451000    260.36609   -3891.6282   -3445.3697   -3891.6282            0    6859.4732    17.064192    20.099364    20.818274    7140.2389    5531.4829     8526.182    6520.7547   -661.95993   -114.13995    498.45547   -2731.0717 
15452000    258.79863   -3852.5845   -3409.0125   -3852.5845            0    6478.8177     16.98382    20.004696    20.720221    7039.8226    5711.8897    8013.9586    5710.6047    714.87011   -749.15007    188.66793   -2743.8414 
15453000    240.46291   -3875.7208   -3463.5756   -3875.7208            0    7428.7362    16.988499    20.010208     20.72593    7045.6433    5637.3831    8702.9655    7945.8599   -2610.8782   -852.96899    892.70373   -2700.2471 
15454000    254.11734   -3905.8945   -3470.3461   -3905.8945            0    7257.7868    17.005441    20.030163    20.746598     7066.743    6309.5412    7290.9386    8172.8805   -154.01673    362.53705      499.968   -2722.3499 
15455000    269.93043     -3959.01   -3496.3584     -3959.01            0    8530.9447     16.94611    19.960279    20.674214    6993.0338    7317.0586    7771.1291    10504.646    420.58084   -221.75426    1532.6047   -2626.3196 
15456000    255.16271   -3915.6683   -3478.3281   -3915.6683            0    6732.9548    16.997099    20.020337    20.736421    7056.3476    6327.9603    5823.9105    8046.9936   -1044.5986   -604.73067    352.95205   -2785.4425 
15457000    256.80302   -3912.2875   -3472.1359   -3912.2875            0    5235.7803    17.093379    20.133743    20.853883    7176.9412    5973.9818    4732.7079    5000.6511    205.84264   -910.23313    965.52219   -2924.1155 
15458000    266.42316   -3883.9628   -3427.3226   -3883.9628            0    8024.8558    16.984742    20.005783    20.721346    7040.9699    8377.0195    9618.7323    6078.8155   -158.39892   -2346.4905     2832.989   -2603.2877 
15459000    254.63515   -3891.5528   -3455.1169   -3891.5528            0    7608.5113    16.986583    20.007951    20.723592    7043.2591     7461.996    6732.3036    8631.2343   -407.50735    353.66791   -1863.2149   -2673.5804 
15460000    254.86554   -3845.9248    -3409.094   -3845.9248            0    10037.811    16.980649    20.000961    20.716352    7035.8798    9517.9927    10459.734    10135.708   -692.56936   -784.42501   -1558.4535   -2379.1032 
15461000    264.70412   -3894.2928    -3440.599   -3894.2928            0    8822.9754    16.933282     19.94517    20.658565    6977.1659    10125.349    5751.4854    10592.092   -74.338987    2004.4299    226.42646   -2542.8189 
15462000    258.81495   -3877.8905   -3434.2905   -3877.8905            0    7996.7648     17.00098    20.024909    20.741156    7061.1833    8890.8055    7594.4216    7505.0674    1046.6497    599.90772   -1423.1658   -2610.7828 
15463000    278.75425   -3882.1486   -3404.3734   -3882.1486            0    6962.0891    17.022792    20.050601    20.767767     7088.396     6702.304    7196.2985    6987.6647    1481.2721   -156.39682    736.39328   -2684.6536 
15464000     257.4009   -3875.6916   -3434.5153   -3875.6916            0    8138.2982    17.027955    20.056682    20.774065    7094.8476    9379.3496    8403.9309     6631.614   -1942.1964    661.22247    925.05444   -2592.4368 
15465000     248.0271   -3914.6302   -3489.5203   -3914.6302            0    6971.1001    17.118457    20.163281    20.884477    7208.5748    7582.2012    6556.0723    6775.0268   -1632.0613     1527.566   -94.452144   -2756.6508 
15466000    251.56509   -3856.1927   -3425.0187   -3856.1927            0    9248.8689    17.033116    20.062761    20.780362    7101.3009    8765.5408    6851.3385    12129.727    1475.8245   -384.54839   -1243.0608   -2467.1579 
15467000    256.88574   -3909.6446   -3469.3512   -3909.6446            0    8673.6949    17.067338     20.10307    20.822113    7144.1898    7605.8345    11035.604    7379.6458    579.93018   -143.65883   -720.58879   -2565.6331 
15468000    268.71936   -3895.5074   -3434.9317   -3895.5074            0    7430.0012    17.139888    20.188524    20.910623    7235.6829    8838.9448    6092.3495    7358.7094    391.64833   -1022.8426   -65.820745   -2650.8807 
15469000    263.89286   -3852.3776   -3400.0742   -3852.3776            0    9095.4643    17.063995    20.099132    20.818034    7139.9917    9752.2904    8279.6503    9254.4522   -651.13852     -1629.61   -810.55705   -2452.9685 
15470000    259.71298   -3904.4822    -3459.343   -3904.4822            0    6792.9492    17.079902    20.117869    20.837441    7159.9789    9932.1474    5216.0556    5230.6445    822.87999    682.44317    1992.6774   -2750.0168 
15471000    247.93975   -3838.0086   -3413.0483   -3838.0086            0    8082.5588    17.037404    20.067811    20.785593     7106.665    7534.5491    8634.8521     8078.275    1512.6722   -197.74874    1057.4839   -2575.3443 
15472000    258.16231   -3867.5824    -3425.101   -3867.5824            0    8397.2809    17.003346    20.027696    20.744043    7064.1318    6148.0533    11383.415    7660.3748   -1346.2847    517.94037   -110.73437    -2559.987 
15473000    258.32009   -3858.8437   -3416.0919   -3858.8437            0    8339.3149    17.025647    20.053963    20.771249    7091.9628    9177.0392    7670.6985    8170.2071    825.60421    730.64512    1523.2912   -2553.5648 
15474000    265.65692   -3873.4175   -3418.0907   -3873.4175            0    6865.4079    17.078536     20.11626    20.835774     7158.261    6483.2987    7629.5912    6483.3337    154.24757   -513.92407   -1117.9828   -2701.3703 
15475000    259.24003   -3868.9139   -3424.5854   -3868.9139            0    8795.6583    17.018875    20.045987    20.762988    7083.5037    9438.5919    7695.4605    9252.9226    1285.5253     947.9233    1260.5581   -2515.9443 
15476000    241.02112   -3831.4715   -3418.3696   -3831.4715            0    7212.2273    17.052822    20.085972    20.804403    7125.9762    5885.4959    7863.0521     7888.134      952.101    687.25174     49.56994   -2668.8385 
15477000    279.14841   -3830.9462   -3352.4954   -3830.9462            0    8774.9727    17.004395    20.028932    20.745323    7065.4393    8903.2343    7971.0972    9450.5866    746.90302    864.85888    829.28882    -2448.303 
15478000    267.02594   -3853.2345   -3395.5612   -3853.2345            0    7165.4926    17.046672    20.078728      20.7969    7118.2689    7215.5497    6193.2483    8087.6797    1231.7026    217.58652   -701.06814   -2651.6925 
15479000    255.40346   -3837.1642   -3399.4114   -3837.1642            0    5627.2407    17.081904    20.120227    20.839883    7162.4968     5382.504    4457.4835    7041.7345   -389.68683    586.71178    2050.7099    -2811.603 
15480000    268.40971   -3843.3566   -3383.3115   -3843.3566            0     6687.103    17.094986    20.135635    20.855843    7178.9646    8668.5931     5156.031     6236.685    899.93413   -515.78757   -108.36087   -2683.1863 
15481000    267.49962   -3849.2833   -3390.7981   -3849.2833            0    6884.5301    17.052993    20.086174    20.804612    7126.1911    7990.3874    7398.4889    5264.7141   -404.39254    1068.4599   -1559.1984   -2675.3014 
15482000    256.65293   -3872.6662   -3432.7719   -3872.6662            0    6953.2149    17.122473    20.168012    20.889377    7213.6503    5586.3745    8516.0902    6757.1801   -32.181656     510.8076   -890.18139    -2701.268 
15483000    271.20226   -3911.3853   -3446.5539   -3911.3853            0    6673.8203    17.036399    20.066627    20.784367    7105.4072    6918.6966    4808.8588    8293.9054    1000.8823    1490.9722    -701.7219   -2754.9788 
15484000    260.18995   -3850.6917   -3404.7351   -3850.6917            0    8772.8006    17.050823    20.083617    20.801964    7123.4703    10677.331    8136.9393    7504.1312   -1145.9795    872.04948    1219.2247   -2493.3419 
15485000    251.10713   -3884.9228   -3454.5337   -3884.9228            0     7054.249    17.034699    20.064626    20.782293    7103.2811    7658.5939    6946.8386    6557.3146    -623.7478   -211.90812    1482.4934   -2723.7554 
15486000    257.18065   -3861.1761   -3420.3773   -3861.1761            0    9776.8358    16.940448     19.95361    20.667307    6986.0274    10106.712    10046.009    9177.7865   -494.46118    574.97875   -184.10856   -2424.2737 
15487000    269.29352   -3897.3855   -3435.8257   -3897.3855            0    6289.5728    17.029518    20.058523    20.775972    7096.8018    5866.9209    7969.1151    5032.6825    873.05529    416.91018   -1269.7665   -2784.8575 
15488000    259.00342   -3870.1796   -3426.2566   -3870.1796            0    6752.7243    17.086257    20.125354    20.845193    7167.9732    5791.1363    7586.5213    6880.5152     992.1717   -753.84976    -547.2053   -2720.3435 
15489000    260.62753   -3857.9759   -3411.2692   -3857.9759            0    7660.7635    17.066508    20.102092      20.8211    7143.1473    7393.4911    6997.6268    8591.1726    1695.1138   -344.24815    1278.5889   -2613.2055 
15490000     260.0019      -3854.1   -3408.4657      -3854.1            0    8463.4953    17.050009    20.082659    20.800972    7122.4507     8997.026    9483.4136    6910.0463    1066.8279   -917.07925   -2132.1218   -2529.3316 
15491000    248.53796   -3862.1627   -3436.1771   -3862.1627            0    8634.6858    17.073021    20.109763    20.829045    7151.3279    8934.7029    8053.0608    8916.2936     821.1807    364.50406    694.34651   -2535.6245 
15492000    269.11355   -3873.4081   -3412.1567   -3873.4081            0    7965.7393    17.021426    20.048991    20.766099     7086.689    6909.8697    9188.3568    7798.9916   -693.47442   -491.33729   -315.20712   -2588.8809 
15493000    260.06105   -3815.8455   -3370.1098   -3815.8455            0    8537.5591    17.001615    20.025657    20.741931    7061.9745    9781.6683    6037.9061     9793.103   -832.82788    168.37991    222.39977   -2490.8124 
15494000     270.7715   -3840.0995   -3376.0064   -3840.0995            0    8381.6129    17.015627    20.042161    20.759025    7079.4487    8586.9811    8344.1394     8213.718    598.35214   -195.01858   -1329.1713   -2510.6343 
15495000    259.76554     -3816.85   -3371.6208     -3816.85            0    9365.7751    17.036864    20.067176    20.784935      7105.99    10107.462    6167.6892    11822.174   -734.28487   -358.15292   -27.824991    -2401.012 
15496000    256.85242   -3823.9263     -3383.69   -3823.9263            0    7655.9813    17.024393    20.052486    20.769719    7090.3958    9856.6136    5307.6765    7803.6538    43.268345   -602.24161   -1141.7135   -2592.0145 
15497000    255.82716   -3853.4739   -3414.9949   -3853.4739            0    7799.3019    16.986621    20.007996    20.723638    7043.3068    7535.7613    8759.5204    7102.6241   -338.81146     1521.006   -801.01725   -2613.8553 
15498000    266.87672   -3836.3213   -3378.9037   -3836.3213            0    9793.5291    16.916001    19.924815    20.637482    6955.8256    9437.3143    8865.6969    11077.576   -1278.1358   -1508.5781    745.29183   -2385.4131 
15499000    260.86897   -3898.7355    -3451.615   -3898.7355            0    7357.2181    16.978655    19.998613    20.713919    7033.4018    7290.6026    5925.7168     8855.335    -915.9676   -199.67787   -405.23774   -2696.9487 
15500000    261.45354   -3852.3651   -3404.2426   -3852.3651            0    9223.3213    16.962679    19.979795    20.694429    7013.5663    9161.0302    9115.2396    9393.6941    257.93423    1065.5199    1392.9802    -2460.829 
Loop time of 444.131 on 64 procs for 250000 steps with 864 atoms

Performance: 97.269 ns/day, 0.247 hours/ns, 562.896 timesteps/s
99.1% CPU use with 64 MPI tasks x 1 OpenMP threads

MPI task timing breakdown:
Section |  min time  |  avg time  |  max time  |%varavg| %total
---------------------------------------------------------------
Pair    | 21.343     | 26.534     | 31.051     |  48.7 |  5.97
Bond    | 0.27115    | 0.27952    | 0.29139    |   0.8 |  0.06
Kspace  | 187.27     | 198.31     | 212.31     |  44.7 | 44.65
Neigh   | 5.1045     | 6.0376     | 7.7883     |  31.7 |  1.36
Comm    | 87.274     | 101.63     | 113.74     |  64.5 | 22.88
Output  | 1.0659     | 1.0664     | 1.0726     |   0.1 |  0.24
Modify  | 101.61     | 105.52     | 108.2      |  17.6 | 23.76
Other   |            | 4.75       |            |       |  1.07

Nlocal:        13.5000 ave          20 max           9 min
Histogram: 1 9 9 15 9 13 7 0 0 1
Nghost:        2255.61 ave        2285 max        2222 min
Histogram: 1 7 3 13 6 3 10 12 6 3
Neighs:        4398.89 ave        5844 max        2893 min
Histogram: 4 6 2 7 13 11 6 4 8 3

Total # of neighbors = 281529
Ave neighs/atom = 325.84375
Ave special neighs/atom = 2.0000000
Neighbor list builds = 14050
Dangerous builds = 0

unfix		3
unfix		2
unfix		1

write_data	data.final.${pid}
write_data	data.final.0
System init for write_data ...
PPPM initialization ...
  extracting TIP4P info from pair style
  using 12-bit tables for long-range coulomb (../kspace.cpp:340)
  G vector (1/distance) = 0.3743214
  grid = 24 24 24
  stencil order = 5
  estimated absolute RMS force accuracy = 0.0031541868
  estimated relative force accuracy = 9.4987398e-06
  using double precision FFTW3
  3d grid and FFT values/proc = 2535 216
Last active /omp style is kspace_style pppm/tip4p/omp
WARNING: Not all mixed pair coeffs generated from mixing. Use write_data with 'pair ij' option to store all pair coeffs. (../write_data.cpp:312)

write_restart   restart.lmp.${pid}
write_restart   restart.lmp.0
System init for write_restart ...
PPPM initialization ...
  extracting TIP4P info from pair style
  using 12-bit tables for long-range coulomb (../kspace.cpp:340)
  G vector (1/distance) = 0.3743214
  grid = 24 24 24
  stencil order = 5
  estimated absolute RMS force accuracy = 0.0031541868
  estimated relative force accuracy = 9.4987398e-06
  using double precision FFTW3
  3d grid and FFT values/proc = 2535 216
Last active /omp style is kspace_style pppm/tip4p/omp
Total wall time: 0:07:26
