LAMMPS data file via write_data, version 30 Jul 2021, timestep = 6750000

1008 atoms
2 atom types
672 bonds
1 bond types
336 angles
1 angle types

-3.120480275679162 14.73047927523461 xlo xhi
-0.21192116714628284 22.79192016714339 ylo yhi
-0.08205921558238671 19.31205721558196 zlo zhi
-0.08987314252238401 -6.421052955004308 0.01517978874495548 xy xz yz

Masses

1 1.008
2 15.999

Pair Coeffs # lj/cut/tip4p/long/omp

1 0 0
2 0.21084 3.1668

Bond Coeffs # harmonic/omp

1 450 0.9572

Angle Coeffs # harmonic/omp

1 55 104.52

Atoms # full

122 41 1 0.5897 -2.3917150619458427 1.8194506224508658 1.4640832713896468 1 0 0
19 7 2 -1.1794 1.1688749729575019 2.3016422011217585 0.02812601399188934 0 0 0
56 19 1 0.5897 -1.1593557157833199 3.722198010703964 3.1007495390326296 0 0 0
55 19 2 -1.1794 -0.5069062470965315 4.143514843461232 3.6602990170247875 0 0 0
163 55 2 -1.1794 -2.21181022594204 0.7708126662563802 0.1556135058269852 1 0 0
86 29 1 0.5897 -2.4214775163415334 1.3227659836678216 3.9161711122177487 1 0 0
121 41 2 -1.1794 -2.2703851843825937 2.379925771197738 2.230457739546311 1 0 0
123 41 1 0.5897 -3.1589098865037633 2.5694998653641163 2.5321873299623774 1 0 0
158 53 1 0.5897 -4.194286025275776 4.295599739497632 4.450716819910827 1 0 0
33 11 1 0.5897 0.49491045742914697 0.5565689677926552 2.3965379186632285 0 0 0
482 161 1 0.5897 -1.1759895127721038 -0.10890518021433021 1.2556612010418096 1 1 0
602 201 1 0.5897 -0.6642502398147849 4.894139496998219 0.32773739343738956 1 0 1
57 19 1 0.5897 0.2594657558080917 4.2507979506053655 3.096787041192088 0 0 0
101 34 1 0.5897 -2.660196941855024 4.330399849184791 -0.06779791335345155 1 0 0
135 45 1 0.5897 -1.3229910256452264 3.5903528839757435 6.707937572953991 1 0 0
69 23 1 0.5897 -2.0584505870161665 1.0079197063224075 8.533533408815055 0 0 0
67 23 2 -1.1794 -1.7851599453158307 0.26748295828686913 7.991942523184816 0 0 0
98 33 1 0.5897 -4.059274440315396 4.808291845350456 8.814984227284702 1 0 0
134 45 1 0.5897 -2.0212589566889325 2.3786350502684006 6.128190187091935 1 0 0
68 23 1 0.5897 -2.5653918924934596 0.03901207363413295 7.486584621635649 0 0 0
133 45 2 -1.1794 -2.185046694452571 3.183602128934729 6.619555521771022 1 0 0
126 42 1 0.5897 -3.962642334500318 2.85655710243147 6.918416656344486 1 0 0
159 53 1 0.5897 -3.098176567603485 4.419943513649687 5.487561211390841 1 0 0
124 42 2 -1.1794 -4.8077020734570315 2.468391880451559 7.145662450967549 1 0 0
669 223 1 0.5897 -5.016205535922447 2.0113747180378803 9.306229293990869 1 0 0
157 53 2 -1.1794 -3.6951214857627104 4.941314398083344 4.950864754274735 1 0 0
606 202 1 0.5897 -5.746684860636289 4.397277284958053 9.501352880194402 1 0 0
85 29 2 -1.1794 -2.472286148367419 1.0416946188327152 4.829685294870339 1 0 0
87 29 1 0.5897 -3.4026970890130848 0.870938871643562 4.976886606547535 1 0 0
559 187 2 -1.1794 -4.137424303585809 4.093197406895882 13.159435556927265 0 0 0
987 329 1 0.5897 -3.1180130949815124 0.032499432950158114 11.935330199698335 1 1 0
99 33 1 0.5897 -3.7835975147905097 5.271690037476427 10.229499353629427 1 0 0
625 209 2 -1.1794 -6.275818362757958 2.2176298401868917 12.21339032092873 1 0 0
668 223 1 0.5897 -5.797755215943618 1.8708903269085608 10.595155596962297 1 0 0
560 187 1 0.5897 -4.9241257500784235 3.6952544762545467 12.786451483376023 0 0 0
626 209 1 0.5897 -5.921313716227344 1.519572909585474 12.764042836726905 1 0 0
627 209 1 0.5897 -7.047423353201584 2.5286129153870864 12.686999668408266 1 0 0
667 223 2 -1.1794 -5.495727835654852 1.3736697148026893 9.835044867771026 1 0 0
523 175 2 -1.1794 -2.0457560527220613 2.2191359429380264 9.92576218514867 0 0 0
986 329 1 0.5897 -4.15600948073835 0.24865334308316928 10.854719164242468 1 1 0
561 187 1 0.5897 -3.7540420709203204 3.404113174759253 13.70196696290442 0 0 0
524 175 1 0.5897 -2.555346049794445 3.018635485529647 9.793852087328233 0 0 0
662 221 1 0.5897 -7.568192577217743 4.907804720681054 14.41923149145997 1 0 0
97 33 2 -1.1794 -3.9218654614999475 4.483242918258056 9.70466259642328 1 0 0
639 213 1 0.5897 -6.125531627827628 4.011486751295063 15.612324195888023 1 0 0
628 210 2 -1.1794 -7.711075701310552 1.85485172850575 17.143719752684785 1 0 0
637 213 2 -1.1794 -5.550981834547557 3.5435312968802455 16.21822274620533 1 0 0
591 197 1 0.5897 -4.848577624461527 -0.032690158436077005 14.477440802000174 1 0 0
164 55 1 0.5897 -8.073019735404355 1.018658674472904 18.809041871636445 1 0 -1
629 210 1 0.5897 -8.547991792703776 2.307026227294817 17.25114023618228 1 0 0
638 213 1 0.5897 -6.148202083247645 3.0806824537529796 16.805924948200285 1 0 0
20 7 1 0.5897 -5.551477714761631 1.5337741052337033 18.960179389111968 0 0 -1
590 197 1 0.5897 -5.093273462637642 1.2087618062891943 15.308548409358146 1 0 0
603 201 1 0.5897 -6.519196103105811 3.6626424590740587 19.075834356541886 1 0 0
571 191 2 -1.1794 -5.4340659186187565 -0.036183948721414644 18.14965030502026 0 0 0
630 210 1 0.5897 -7.788464742313894 1.4031988259974897 16.3033770754361 1 0 0
165 55 1 0.5897 -9.141185562214027 0.03623404195512081 19.24025079950397 1 0 -1
589 197 2 -1.1794 -5.338153304793461 0.7898384757672192 14.483529096171631 1 0 0
601 201 2 -1.1794 -7.254354941954844 4.273758474418504 19.026378588038764 1 0 0
593 198 1 0.5897 -7.433569928874967 0.3322247669789985 14.721607798643596 1 0 0
291 97 1 0.5897 -2.0021010913917903 10.695136318940872 2.593531021898147 1 0 0
146 49 1 0.5897 -1.4607271236237471 6.299394338608036 1.802014023947048 1 0 0
290 97 1 0.5897 -3.4438649342271725 10.285913248265324 2.3783153381899456 1 0 0
289 97 2 -1.1794 -2.5519028455276365 9.938477097844137 2.3897754775055797 1 0 0
145 49 2 -1.1794 -0.9159716742691186 6.4254621960562925 1.0250980056620866 1 0 0
114 38 1 0.5897 -3.4110087110731744 5.6178937071258 1.8839786740995026 1 0 0
147 49 1 0.5897 -1.3443499670153352 7.133541417817688 0.5441371797842031 1 0 0
255 85 1 0.5897 -2.506601954017394 8.780169447428289 3.8964601351716874 1 0 0
112 38 2 -1.1794 -3.1456426749202673 6.325479748062312 2.4714519030002187 1 0 0
332 111 1 0.5897 -2.519411419038774 9.127036129161054 0.7922733588211064 1 0 0
200 67 1 0.5897 0.49579189393158307 7.42456183905907 1.759929855405793 0 0 0
113 38 1 0.5897 -3.294460160679721 5.976310348838084 3.3501077725691983 1 0 0
187 63 2 -1.1794 0.6688382013441361 9.984715736440904 0.10741050883409947 0 0 0
331 111 2 -1.1794 -2.5781182103562257 8.504625950759023 0.06746057121816063 1 0 0
188 63 1 0.5897 0.8384547599349776 9.459295593558995 0.8892348014306938 0 0 0
224 75 1 0.5897 -0.19484239541666337 11.12907402958907 3.8390324123605146 0 0 0
9 3 1 0.5897 -0.7657339076277694 5.825295112691446 4.425058362959392 0 0 0
253 85 2 -1.1794 -2.695245967173032 8.371290949202898 4.741060627397178 1 0 0
771 257 1 0.5897 -0.439435776048827 11.257122910461723 -0.048016953457545 1 0 1
109 37 2 -1.1794 -4.236197488274046 6.037372687027445 7.376856482568514 1 0 0
110 37 1 0.5897 -4.2573634084862695 5.755444450450044 6.462432553375874 1 0 0
301 101 2 -1.1794 -2.168462043834277 10.684072666567122 6.65181112669852 1 0 0
7 3 2 -1.1794 -0.7306574238420191 6.570411714951406 5.02488447850324 0 0 0
294 98 1 0.5897 -4.723993023315593 10.090952364192736 8.349726478108417 1 0 0
236 79 1 0.5897 -2.641120614464749 7.256511519963939 7.765871924089956 0 0 0
293 98 1 0.5897 -3.7895317848457593 10.477883488385958 7.22319577540746 1 0 0
292 98 2 -1.1794 -4.695765764233603 10.56557497579497 7.519041647509632 1 0 0
237 79 1 0.5897 -2.166030987346804 8.30991282692966 8.743898634942322 0 0 0
111 37 1 0.5897 -5.0523685920201 6.522929287996649 7.497264321466859 1 0 0
302 101 1 0.5897 -1.7878933005184265 9.918231856408108 6.221776802202551 1 0 0
235 79 2 -1.1794 -1.850042757311479 7.609067355093839 8.173627975849191 0 0 0
837 279 1 0.5897 -5.803979319702609 8.253265215618073 9.349763346784963 1 0 0
8 3 1 0.5897 -0.8606797999473295 6.186679956168583 5.892032476718136 0 0 0
257 86 1 0.5897 -4.586493671219902 8.386497209525018 5.271370803236688 1 0 0
835 279 2 -1.1794 -5.052746800635179 8.80284346953023 9.573360591539739 1 0 0
254 85 1 0.5897 -2.00894196654115 7.71247914477804 4.847293722744118 1 0 0
303 101 1 0.5897 -1.4172660554082772 11.153192975079868 7.015121789141364 1 0 0
793 265 2 -1.1794 -5.82041264361965 9.688555823837845 12.224306382338751 1 0 0
794 265 1 0.5897 -5.260395295913151 10.446762841437295 12.391138863014548 1 0 0
691 231 2 -1.1794 -2.3330497510088204 9.87734765901656 9.71797996836769 0 0 0
650 217 1 0.5897 -3.4215888733537643 7.287646298649203 11.791459929647619 1 0 0
649 217 2 -1.1794 -3.9181876759302385 6.8057451148511 11.130095816754455 1 0 0
759 253 1 0.5897 -6.007232589140505 8.667257457131024 13.930075152999503 1 0 0
651 217 1 0.5897 -4.6950468934201 6.49291382161464 11.593783205116084 1 0 0
795 265 1 0.5897 -5.694916586874786 9.497454527618471 11.294894023765153 1 0 0
836 279 1 0.5897 -4.608004025945039 8.327525937757587 10.275091290335537 1 0 0
513 171 1 0.5897 -3.999392029907816 5.931318134164648 13.932784773465904 0 0 0
616 206 2 -1.1794 -6.5524094879351615 6.350837337861994 12.0773395708292 1 0 0
618 206 1 0.5897 -6.566515606528435 5.901678588444252 11.232229466471763 1 0 0
809 270 1 0.5897 -7.368473912879595 10.541602062232888 12.714756986946854 1 0 0
693 231 1 0.5897 -2.3664782743867847 9.434346280791214 10.565757438786521 0 0 0
663 221 1 0.5897 -6.63279614780844 5.970085178008894 13.88189839319251 1 0 0
741 247 1 0.5897 -5.409843209923945 8.598338046245834 18.520243445954577 0 0 0
797 266 1 0.5897 -7.106969833402278 10.314460612769949 16.699783256060385 1 0 0
758 253 1 0.5897 -5.660217713767783 9.16532797954464 15.31686183157181 1 0 0
739 247 2 -1.1794 -5.14828528542141 7.766631514889549 18.12513383956177 0 0 0
796 266 2 -1.1794 -7.931569997070056 9.981105934618315 17.053799315526106 1 0 0
798 266 1 0.5897 -8.164495507849637 9.254385863415092 16.476041051887112 1 0 0
805 269 2 -1.1794 -5.463348138477892 10.931895890536442 16.123303365810482 1 0 0
740 247 1 0.5897 -5.923717872613766 7.474271126612377 17.64597439932575 0 0 0
615 205 1 0.5897 -7.478141250646005 6.251001689906109 16.290178919107234 1 0 0
613 205 2 -1.1794 -7.482295209949882 6.435226948671453 17.229395226225794 1 0 0
333 111 1 0.5897 -8.587077858006051 8.970389409060438 18.724452898232453 1 0 -1
614 205 1 0.5897 -7.327362589069534 5.585215144395836 17.641294610054562 1 0 0
762 254 1 0.5897 -7.726606117595661 8.342535320122828 14.780650655177082 1 0 0
807 269 1 0.5897 -4.613506870936304 11.2067933917136 16.46749275082745 1 0 0
661 221 2 -1.1794 -6.972185691858163 5.603023061312595 14.698134886083164 1 0 0
757 253 2 -1.1794 -5.830218742644952 8.364622526742728 14.82066767496024 1 0 0
512 171 1 0.5897 -4.302896647378711 7.206103301304049 14.690907305637339 0 0 0
511 171 2 -1.1794 -3.607952244429103 6.567334140119061 14.531527030140053 0 0 0
315 105 1 0.5897 -0.4073140536978017 13.96845123678812 0.7130497090169337 1 0 0
280 94 2 -1.1794 -3.1867407578588622 13.976708040424763 2.4838809796159436 1 0 0
223 75 2 -1.1794 -0.6450950313860266 11.824779574131531 3.3599975708888565 0 0 0
225 75 1 0.5897 -0.6078257557724651 12.581739722464258 3.94466864765936 0 0 0
281 94 1 0.5897 -2.971003752816899 13.509089601219928 3.290662566818243 1 0 0
282 94 1 0.5897 -2.3383305020934273 14.222988026174823 2.115135181025717 1 0 0
313 105 2 -1.1794 -0.7904956463430386 14.559189839280393 1.3614646521239326 1 0 0
314 105 1 0.5897 -0.0385413284612377 14.993665758835162 1.7641432245612352 1 0 0
425 142 1 0.5897 -4.093224792685218 15.708390633661985 4.760578997070421 1 0 0
500 167 1 0.5897 -1.4872487855333798 16.30454772888846 0.45760722954199207 1 0 0
423 141 1 0.5897 -2.140806112070238 16.655157883557347 3.7447528610025054 1 0 0
176 59 1 0.5897 -0.9335251696454909 14.810600218420404 4.692943652304759 0 0 0
499 167 2 -1.1794 -2.1668550455421753 16.79602058918574 -0.003769362348472416 1 0 0
269 90 1 0.5897 -3.341388643160333 12.82032862898914 1.0729140030497577 1 0 0
421 141 2 -1.1794 -2.176045949386883 16.225494294696336 4.599270929983628 1 0 0
326 109 1 0.5897 -3.0022905160297775 11.738688862769116 5.423024181404988 1 0 0
403 135 2 -1.1794 -2.531056008432511 15.528080309490253 8.441709493223318 0 0 0
266 89 1 0.5897 -3.150030203621797 11.61262030518264 9.36858160328459 1 0 0
267 89 1 0.5897 -3.7847657632763982 12.782508050563866 8.647278357856342 1 0 0
277 93 2 -1.1794 -4.169264738241163 13.706408802931536 7.175463918302426 1 0 0
278 93 1 0.5897 -3.772698669481091 14.513543879933387 7.50340286720276 1 0 0
405 135 1 0.5897 -2.673074627158712 16.281930007017586 9.014215677795017 0 0 0
1004 335 1 0.5897 -5.090672062395145 16.40709550782713 8.758618614007181 1 0 0
327 109 1 0.5897 -3.6662048035331822 13.095788452138581 5.5206421297198265 1 0 0
422 141 1 0.5897 -2.1844757558537164 16.945643019076083 5.229763589609918 1 0 0
279 93 1 0.5897 -5.099309025036819 13.793506576545305 7.384963538890542 1 0 0
404 135 1 0.5897 -1.809178442874221 15.792509880923387 7.871349131047341 0 0 0
462 154 1 0.5897 -5.0889566235674 16.675353799256442 6.309014386131603 1 0 0
265 89 2 -1.1794 -3.642251130676948 12.419289434977117 9.521257721068974 1 0 0
325 109 2 -1.1794 -3.51203296735462 12.370269933190459 4.915594096242242 1 0 0
785 262 1 0.5897 -6.89154155879403 14.808117214782198 12.073125240988132 1 0 0
728 243 1 0.5897 -3.3216901377740387 11.695482625695444 12.474056764065873 0 0 0
773 258 1 0.5897 -6.342599079482577 12.814732825282666 11.052668696618635 1 0 0
819 273 1 0.5897 -3.3863583612875505 13.82237665915208 10.780644510418238 1 0 0
818 273 1 0.5897 -4.497626683860446 14.492910063626042 11.560198157491886 1 0 0
727 243 2 -1.1794 -4.063629022772628 11.597541729700644 13.070954398079184 0 0 0
784 262 2 -1.1794 -6.278498065372596 14.085333873846205 12.207576451488382 1 0 0
786 262 1 0.5897 -6.379814764302651 13.853404592804608 13.130625278303844 1 0 0
817 273 2 -1.1794 -3.578706009470492 14.595015792037692 11.311937280007887 1 0 0
729 243 1 0.5897 -4.115829276511819 12.436618489087417 13.528612496930494 0 0 0
1005 335 1 0.5897 -4.676012352303005 15.445550843496354 9.851834132264278 1 0 0
831 277 1 0.5897 -7.5582890095419435 12.36875017947971 14.123838357234748 1 0 0
772 258 2 -1.1794 -6.295906688514574 12.082713985913347 10.4377433815278 1 0 0
774 258 1 0.5897 -5.361120431079403 11.978100145986202 10.259673703684904 1 0 0
925 309 2 -1.1794 -5.566660404560089 16.37783404900114 14.252914457822458 1 0 0
1003 335 2 -1.1794 -5.336131559301599 16.10312376127706 9.632378784669653 1 0 0
908 303 1 0.5897 -6.175170367253124 15.286065132432988 17.407224586546093 0 0 0
681 227 1 0.5897 -4.140999519093759 13.849538708173116 15.469484710367125 0 0 0
830 277 1 0.5897 -7.24813171362656 13.230333437933469 15.32934203714683 1 0 0
783 261 1 0.5897 -8.41689058736426 14.176452078837285 17.20219558068728 1 0 0
781 261 2 -1.1794 -7.560464546578736 13.801444090847289 16.996410017918116 1 0 0
782 261 1 0.5897 -7.401324860525168 13.16819730384117 17.696261537723593 1 0 0
907 303 2 -1.1794 -5.583218796425007 15.898788251580285 17.84366434681384 0 0 0
769 257 2 -1.1794 -7.231334206002996 12.150186704834853 19.256355390671068 1 0 0
909 303 1 0.5897 -4.9951020818182705 16.199292093496798 17.150778190682196 0 0 0
930 310 1 0.5897 -7.376646128723303 16.257155686460596 14.75073845322944 1 0 0
806 269 1 0.5897 -5.7247093347404086 11.640481282261064 15.535296784841584 1 0 0
770 257 1 0.5897 -8.169701430175575 12.003294959543574 19.136528710221572 1 0 0
679 227 2 -1.1794 -3.8994494388344885 14.186196051425137 14.606675151442614 0 0 0
829 277 2 -1.1794 -6.835679967279182 12.799315628009394 14.580780558900495 1 0 0
926 309 1 0.5897 -5.006224590170197 15.633583854002316 14.472578935964489 1 0 0
938 313 1 0.5897 -0.671930377747934 20.845871193061527 0.423103676105563 1 0 1
391 131 2 -1.1794 -0.877598737191021 19.46078913637113 3.416558973011802 0 0 0
457 153 2 -1.1794 -2.9207150684926946 17.708851415016376 2.4401287136295795 1 0 0
392 131 1 0.5897 -0.0015432340490946217 19.647828471271218 3.0789359037219404 0 0 0
495 165 1 0.5897 -3.929601163415459 20.642294510362692 4.159502237560504 1 0 0
393 131 1 0.5897 -1.131123500678026 20.258359160281 3.881160837369869 0 0 0
448 150 2 -1.1794 -3.3879282200455405 21.527046912847396 2.696684768678782 1 0 0
449 150 1 0.5897 -3.7326608714722234 20.989395656175265 1.9837356359145968 1 0 0
483 161 1 0.5897 -1.665163312297301 21.76438440912031 2.1798711233206576 1 0 0
459 153 1 0.5897 -2.313177435277238 18.416566271633673 2.655505210220097 1 0 0
481 161 2 -1.1794 -0.9003455969467211 22.21518306355047 1.8217964001491749 1 0 0
450 150 1 0.5897 -3.965566109049005 22.28991988315981 2.7228598330737332 1 0 0
458 153 1 0.5897 -2.6833804832384613 17.451729285799182 1.5492402702199624 1 0 0
355 119 2 -1.1794 0.7679427404035715 18.07397936463975 0.07180940488253587 0 0 0
437 146 1 0.5897 -2.705914792615213 19.655069497990713 0.2323592131221146 1 0 0
356 119 1 0.5897 0.5192358570278492 17.788283121207268 0.9508101646505305 0 0 0
939 313 1 0.5897 -0.34041567117421145 19.455985379786163 -0.07716280580885915 1 0 1
343 115 2 -1.1794 -0.8464376549475281 21.851435734716347 5.115750963120518 0 0 0
494 165 1 0.5897 -3.9867663962719346 20.653176773497474 5.672161317522232 1 0 0
471 157 1 0.5897 -3.0615936877105274 17.98857822800213 7.009409825365179 1 0 0
470 157 1 0.5897 -2.7288990547213468 18.982485176166936 5.917106754451485 1 0 0
445 149 2 -1.1794 -4.0821900047043 21.707479438189754 7.004760061052215 1 0 0
446 149 1 0.5897 -3.8574429353191304 21.288116123250944 7.835251928657499 1 0 0
447 149 1 0.5897 -5.009343779140276 21.929701218685665 7.091243069317517 1 0 0
469 157 2 -1.1794 -2.335936181401738 18.311310061623537 6.47497940871613 1 0 0
460 154 2 -1.1794 -5.028825543257756 17.172892742228488 7.124483162839008 1 0 0
344 115 1 0.5897 -1.0603288620340554 21.459512434927646 5.962353755294281 0 0 0
493 165 2 -1.1794 -3.8967410104907487 20.06512111603215 4.922313632640253 1 0 0
345 115 1 0.5897 -1.4195601132726305 22.61558375848343 5.053487466188868 0 0 0
433 145 2 -1.1794 -3.704476985035129 20.54539500051937 9.47462081860617 1 0 0
435 145 1 0.5897 -4.62114556102559 20.30513394043792 9.610337372995792 1 0 0
941 314 1 0.5897 -6.720139380450386 20.55559358652878 10.65990644908726 1 0 0
954 318 1 0.5897 -5.623553491352964 21.986568413209728 12.088287523619885 1 0 0
998 333 1 0.5897 -6.550727061973746 20.712348740614523 13.907276084688755 1 0 0
952 318 2 -1.1794 -6.483966415370164 21.594144928865564 12.237113073034804 1 0 0
961 321 2 -1.1794 -5.644941056464815 17.90192252714028 11.828129133466842 1 0 0
896 299 1 0.5897 -4.389393971505736 18.825922777280812 12.813915714606733 0 0 0
860 287 1 0.5897 -3.17968369926732 18.724445643047215 9.865155808288199 0 0 0
895 299 2 -1.1794 -3.6412509371502173 19.330641502106097 13.13313940327816 0 0 0
848 283 1 0.5897 -4.0504896632917005 20.85717969366365 14.194135926367212 0 0 0
985 329 2 -1.1794 -3.871492618223595 22.57723015133434 11.420398044791282 1 0 0
434 145 1 0.5897 -3.4999338223209358 21.132474733309895 10.202424439685617 1 0 0
963 321 1 0.5897 -5.4473800419001615 17.39258864798048 11.042184099555847 1 0 0
962 321 1 0.5897 -5.53242510564811 17.283102784628497 12.54959483722197 1 0 0
859 287 2 -1.1794 -2.739467603724928 17.875723357764745 9.911579873804333 0 0 0
953 318 1 0.5897 -7.105412578708992 22.25532704430357 11.932270343838033 1 0 0
940 314 2 -1.1794 -6.401302225757311 20.29701651411251 9.795294814026388 1 0 0
978 326 1 0.5897 -7.661013140930276 19.067080084855316 13.461473283025343 1 0 0
964 322 2 -1.1794 -7.6721991009713495 17.80185738132378 16.909471836617648 1 0 0
937 313 2 -1.1794 -7.403418576771117 20.175385275271836 19.225843638438608 1 0 0
999 333 1 0.5897 -6.235348256693806 19.630847417286503 14.918492325193998 1 0 0
974 325 1 0.5897 -6.008366129876714 18.351187983241186 16.540011828473723 1 0 0
973 325 2 -1.1794 -5.20902179509663 18.4085354074494 16.016453100875435 1 0 0
949 317 2 -1.1794 -7.387083010109682 21.57398170826189 16.95439528455554 1 0 0
950 317 1 0.5897 -7.33308079944056 21.061794165306633 16.14760152217059 1 0 0
951 317 1 0.5897 -7.33940644155253 20.92366607444094 17.6550535565597 1 0 0
975 325 1 0.5897 -4.616671993147026 18.947480330452734 16.540754173434117 1 0 0
357 119 1 0.5897 -5.520093179904052 17.27641722906679 18.978084603897877 0 0 -1
997 333 2 -1.1794 -6.9401544952445695 20.205623285642787 14.619847193115989 1 0 0
965 322 1 0.5897 -7.888760887442384 17.200179755018574 16.197238286939637 1 0 0
572 191 1 0.5897 -6.317588822526432 22.520272435018434 17.85576988946407 0 -1 0
966 322 1 0.5897 -8.315146403360636 18.506795889659546 16.83197778452729 1 0 0
573 191 1 0.5897 -5.220011282166571 22.451557004438364 18.89622999718863 0 -1 0
847 283 2 -1.1794 -3.903319866811911 21.61674414484414 14.757714361879675 0 0 0
927 309 1 0.5897 -5.298024199894266 17.067839312766193 14.859503216510058 1 0 0
501 167 1 0.5897 -8.17136919589563 17.088123708802087 18.57425865663303 1 0 -1
71 24 1 0.5897 3.1228619932582538 0.23342297351530267 2.1201411201421623 0 0 0
54 18 1 0.5897 3.4288890069382276 3.4457821199417262 2.902244259749853 0 0 0
47 16 1 0.5897 2.294551715743072 4.7940249659931835 1.5707553908608076 0 0 0
46 16 2 -1.1794 2.0186325670650245 4.436059860845136 2.4144792658667416 0 0 0
18 6 1 0.5897 5.428971696175386 3.8962863681182487 -0.05031727349707613 0 0 0
32 11 1 0.5897 1.3191214647082194 1.4812610695064787 3.266957987784087 0 0 0
31 11 2 -1.1794 1.3357886831414012 1.0127197533610843 2.432490243341083 0 0 0
70 24 2 -1.1794 3.8002895513493513 0.13254251618288815 1.4513909380161705 0 0 0
21 7 1 0.5897 1.2170534235444883 2.034880618244942 0.9460572406709606 0 0 0
527 176 1 0.5897 2.8631703353766795 2.575702277547827 0.03558230617831444 0 0 1
52 18 2 -1.1794 4.131762725504462 3.0449777691582427 3.4137207955951 0 0 0
48 16 1 0.5897 2.0871794135696966 5.172834821960557 3.0216677398354137 0 0 0
6 2 1 0.5897 3.689224558415466 1.4966219852386282 4.552710074256 0 0 0
528 176 1 0.5897 4.122091813414035 1.8018197327309124 0.3649215121112587 0 0 1
78 26 1 0.5897 0.5395378826923691 2.869779843061794 4.649563195583649 0 0 0
526 176 2 -1.1794 3.8175535790454704 2.6219505633328213 -0.02346882812255619 0 0 1
77 26 1 0.5897 0.8033822003707041 1.7624953407446402 5.647540136624896 0 0 0
36 12 1 0.5897 -0.2643475876686896 0.8408568441970714 7.37245906605279 0 0 0
43 15 2 -1.1794 0.2629183571129343 4.768906241709653 7.1567177681445875 0 0 0
34 12 2 -1.1794 0.6014177447594498 1.2427679843596444 7.299140473826309 0 0 0
35 12 1 0.5897 0.6353076995871425 1.872693009836115 8.019031236361785 0 0 0
45 15 1 0.5897 1.212242329750329 4.821577346033479 7.045165003513972 0 0 0
76 26 2 -1.1794 1.1945651046501276 2.2193523782711218 4.902926305281332 0 0 0
60 20 1 0.5897 3.27934545948653 3.7018468888200684 6.99085176232586 0 0 0
59 20 1 0.5897 2.4079205400970816 3.4126490700815797 5.787171943485325 0 0 0
58 20 2 -1.1794 2.8891368973223814 4.116872658971197 6.2216767593323885 0 0 0
401 134 1 0.5897 2.5453655547376934 -0.1516072911213311 9.081790625293296 0 1 0
44 15 1 0.5897 0.07746252477008442 5.33530888440217 7.905715911350402 0 0 0
4 2 2 -1.1794 3.9695032688146252 0.8255470146156814 5.17494605493057 0 0 0
522 174 1 0.5897 2.158653554011236 5.5121084198494446 9.387812765838358 0 0 0
5 2 1 0.5897 3.227068490791922 0.22370755404209525 5.229434214086323 0 0 0
22 8 2 -1.1794 0.49813361565990055 2.8234040692318607 9.606017927029166 0 0 0
574 192 2 -1.1794 0.7827220918108027 0.6315097329130986 11.119581070965745 0 0 0
537 179 1 0.5897 -1.9099227400888044 1.438246045674327 11.589248640294498 0 0 0
535 179 2 -1.1794 -1.6411605044448994 0.9145075499648907 12.343951952428108 0 0 0
558 186 1 0.5897 0.23073671630918735 3.9881592789683094 12.766381063333224 0 0 0
23 8 1 0.5897 0.7991029206737212 2.088328558286478 10.140101129588599 0 0 0
556 186 2 -1.1794 1.039841855979037 3.5157477149189953 12.962708584518325 0 0 0
587 196 1 0.5897 -0.8624590032107826 5.437868057878561 10.377004477082492 0 0 0
536 179 1 0.5897 -1.709011955678986 1.5131066719256572 13.087764025717211 0 0 0
557 186 1 0.5897 0.75239838939991 2.6308845768689535 13.18772913544194 0 0 0
552 184 1 0.5897 -2.185699198796603 4.405117383057911 12.168099016556296 0 0 0
576 192 1 0.5897 0.024362179870256018 0.6418865747231042 11.703665467996018 0 0 0
550 184 2 -1.1794 -1.3687588748996102 4.795131993167563 11.856792534967898 0 0 0
575 192 1 0.5897 1.2238833853127504 -0.19552845333585692 11.313562170098992 0 0 0
24 8 1 0.5897 1.114887503911513 3.5292966780577686 9.79995436075392 0 0 0
525 175 1 0.5897 -1.1460646043301255 2.524458666047904 10.043090813697036 0 0 0
551 184 1 0.5897 -1.1342084744129597 5.431901656365438 12.531862364189065 0 0 0
539 180 1 0.5897 -2.882805199532741 1.808697693973233 17.57246635002386 0 0 0
549 183 1 0.5897 -3.899905286128978 4.522339672636263 16.745726451797587 0 0 0
547 183 2 -1.1794 -3.120233655183778 5.071843011465242 16.826185736036972 0 0 0
564 188 1 0.5897 -1.412494264770877 4.527811270427867 16.337130716907847 0 0 0
562 188 2 -1.1794 -0.6509125941953853 4.19277541763691 15.863699236530861 0 0 0
538 180 2 -1.1794 -3.315198534726692 1.2511408555562704 16.92562411244723 0 0 0
581 194 1 0.5897 -2.657447158617577 1.7830291288781308 15.280675752188651 0 0 0
563 188 1 0.5897 -0.5320871495778237 4.804183549035945 15.136937662124538 0 0 0
582 194 1 0.5897 -1.7162670185894617 2.9653769705645674 15.189061945257539 0 0 0
508 170 2 -1.1794 0.9553418363721455 0.7714724624164424 14.496121805657587 0 0 0
540 180 1 0.5897 -4.033404010433693 0.8388347188053593 17.40576928925868 0 0 0
84 28 1 0.5897 -3.3484342704598156 5.428214208795959 18.665420748492966 0 0 -1
580 194 2 -1.1794 -2.289189025444946 2.411026074891664 14.65922063403821 0 0 0
905 302 1 0.5897 -1.7731672645041447 -0.10419648767141543 17.372560507671544 0 1 0
245 82 1 0.5897 0.8984131752259286 9.316640551183818 3.5573832706674953 0 0 0
189 63 1 0.5897 1.4639189251596498 10.50493387969589 -0.009272670871352182 0 0 0
240 80 1 0.5897 3.5237217322613317 7.2209744433261385 1.066958598310973 0 0 0
220 74 2 -1.1794 3.526086544612223 10.605863796716088 3.4679041098758816 0 0 0
238 80 2 -1.1794 3.792440573968131 7.894276669621716 1.6919933450026943 0 0 0
199 67 2 -1.1794 0.9681081862585046 8.182433215029237 2.104678033198508 0 0 0
239 80 1 0.5897 3.749108871033668 8.712362493224484 1.1969927252632686 0 0 0
201 67 1 0.5897 1.8908102102845934 7.931488336474615 2.0588624486868863 0 0 0
10 4 2 -1.1794 2.0504566695113535 6.257834994198048 4.472468368189135 0 0 0
696 232 1 0.5897 4.131891778734835 11.040319055367103 0.41577895840640955 0 0 1
221 74 1 0.5897 4.307158244786805 10.418005851771246 2.947355441461644 0 0 0
222 74 1 0.5897 3.01410615601809 11.205304948110971 2.925049828313581 0 0 0
244 82 2 -1.1794 0.5513147413512112 9.746198761946566 4.339187104081934 0 0 0
694 232 2 -1.1794 3.4846062936302706 10.341889424483103 0.3181634248727109 0 0 1
82 28 2 -1.1794 2.7104374588842095 5.892238256544241 0.01657049203280607 0 0 0
192 64 1 0.5897 0.4911815226368237 9.703950060654282 8.541517071228686 0 0 0
64 22 2 -1.1794 2.18477980613093 6.790392990640175 8.069500752616333 0 0 0
172 58 2 -1.1794 3.61188759232906 8.397545296187856 5.410029365688111 0 0 0
202 68 2 -1.1794 0.6045397459033368 8.751796299483422 7.005530798011136 0 0 0
204 68 1 0.5897 1.1793508419904803 8.019538590296778 7.2284151290893925 0 0 0
203 68 1 0.5897 -0.2569948243881921 8.487844666624401 7.328851956232442 0 0 0
65 22 1 0.5897 2.4936539444796857 7.467484884660847 8.671475131356503 0 0 0
246 82 1 0.5897 0.5653065853828316 9.066269871290606 5.012708562868638 0 0 0
588 196 1 0.5897 -1.161990165512464 6.459149422769938 9.300494179250531 0 0 0
173 58 1 0.5897 3.061333618902208 7.7339350590440405 4.994312287004531 0 0 0
190 64 2 -1.1794 0.3596042239122852 10.00538321689038 9.440353001603887 0 0 0
692 231 1 0.5897 -1.4082373058465576 10.09254474326989 9.595917393050964 0 0 0
11 4 1 0.5897 2.530001384515053 5.87414697386899 5.206597860002882 0 0 0
191 64 1 0.5897 0.6294879096927635 10.923668014302532 9.42754042672492 0 0 0
66 22 1 0.5897 2.978915300220218 6.468242518344052 7.6429060357723015 0 0 0
228 76 1 0.5897 1.9048397425929826 11.267533792411982 5.242972488419001 0 0 0
174 58 1 0.5897 3.645981706937542 9.11315033430022 4.775329296145662 0 0 0
12 4 1 0.5897 1.1681595411292092 6.405956292578296 4.813133373620673 0 0 0
586 196 2 -1.1794 -0.4455036456859647 5.958034533048141 9.69013772098088 0 0 0
744 248 1 0.5897 0.33680322666230866 7.241818569646591 10.884757754781214 0 0 0
705 235 1 0.5897 -1.8556065165079367 8.971099772079569 13.022381067931256 0 0 0
742 248 2 -1.1794 0.5708954262640487 8.007229356899659 11.409723877879989 0 0 0
703 235 2 -1.1794 -1.9283185640235088 8.616191208585745 12.136445804924746 0 0 0
743 248 1 0.5897 0.4350174504228419 8.751280585912527 10.823159802854757 0 0 0
704 235 1 0.5897 -1.043896965025862 8.317533427409392 11.924212029634988 0 0 0
514 172 2 -1.1794 -0.9217869194000228 6.275744244945912 14.00920532954616 0 0 0
724 242 2 -1.1794 0.698506260462854 10.95885561400454 13.078042237961803 0 0 0
516 172 1 0.5897 -0.49272560777721974 7.129825429324387 14.061595075771466 0 0 0
678 226 1 0.5897 0.4438020445788151 9.599247889108955 13.973512218096475 0 0 0
515 172 1 0.5897 -1.8552205282794407 6.4703249663865545 14.094777996295674 0 0 0
750 250 1 0.5897 -3.0059120863703157 10.71929823454454 14.102185105961398 0 0 0
676 226 2 -1.1794 0.39311495389254336 8.775308086935219 14.457994281937756 0 0 0
695 232 1 0.5897 -3.0051794760744963 10.223968680583669 18.76695608165733 0 0 0
707 236 1 0.5897 -3.742257767036066 8.711915717007482 17.283360178164227 0 0 0
706 236 2 -1.1794 -2.9155272095981095 9.042517044989754 16.931752448611007 0 0 0
749 250 1 0.5897 -2.6287911182623827 9.732104374197359 15.18609066802675 0 0 0
568 190 2 -1.1794 -0.848341164106273 6.985772009241255 17.796242806427205 0 0 0
708 236 1 0.5897 -2.367739222553533 8.263662574466634 16.833674676386956 0 0 0