LAMMPS data file via write_data, version 30 Jul 2021, timestep = 13500000

972 atoms
2 atom types
648 bonds
1 bond types
324 angles
1 angle types

0.02367726499443279 19.976323735009032 xlo xhi
0.0013934033827123216 19.998607596610626 ylo yhi
-0.1890842325176223 20.889082232522963 zlo zhi

Masses

1 1.008
2 15.999

Pair Coeffs # lj/cut/tip4p/long/omp

1 0 0
2 0.21084 3.1668

Bond Coeffs # harmonic/omp

1 450 0.9572

Angle Coeffs # harmonic/omp

1 55 104.52

Atoms # full

4 2 2 -1.1794 4.123728986054592 1.2736077100004644 3.13402325602555 0 0 0
5 2 1 0.5897 4.22622733295156 0.6299923209757788 2.4329857833487556 0 0 0
17 6 1 0.5897 4.131329584391154 4.504640483633439 2.7344024349248426 0 0 0
10 4 2 -1.1794 1.1342371724797642 4.087170771304046 3.6472851309453715 0 0 0
11 4 1 0.5897 1.0085997162075226 3.323669531959761 3.083779148293537 0 0 0
12 4 1 0.5897 2.077518750678872 4.1140286071834025 3.808256976242716 0 0 0
16 6 2 -1.1794 3.896372805384285 3.98849778457075 3.5054806131043814 0 0 0
18 6 1 0.5897 3.990422329693246 3.078669332629486 3.223166117502089 0 0 0
23 8 1 0.5897 2.674796603715663 0.9719672740949737 4.270704990824767 0 0 0
31 11 2 -1.1794 0.9654131327961574 2.062773779440038 1.8318513770330975 0 0 0
33 11 1 0.5897 1.6445776053784824 2.2540723328418237 1.185014976475771 0 0 0
32 11 1 0.5897 0.14217217503173385 2.2197816273857662 1.369301774712073 0 0 0
236 79 1 0.5897 0.9420687595995081 0.2677126814599378 1.7639823736090745 0 1 0
3 1 1 0.5897 3.642975825145799 2.599364859553494 -0.018216511825553533 0 0 0
6 2 1 0.5897 4.799158145260502 1.0430907989468918 3.7719228675286653 0 0 0
22 8 2 -1.1794 2.0815906072850403 0.8965046667293631 5.018108015273713 0 0 0
328 110 2 -1.1794 4.110105090382885 1.396455799978016 10.099141075701358 0 0 0
27 9 1 0.5897 2.618889739869097 4.4405865153747115 6.622007428628642 0 0 0
356 119 1 0.5897 1.571302226964807 2.179869074473243 8.28169728955361 0 0 0
325 109 2 -1.1794 2.757099066274473 2.67864047348315 6.991509789430772 0 0 0
326 109 1 0.5897 2.5266195242739626 2.1060201978672564 6.2599549971586255 0 0 0
327 109 1 0.5897 3.692439930117441 2.527960337510542 7.1288001572512645 0 0 0
330 110 1 0.5897 4.193588585660415 0.6537729565739505 9.50106346012666 0 0 0
355 119 2 -1.1794 0.8622791817618722 1.9896834614172068 8.89601709720036 0 0 0
342 114 1 0.5897 4.101590937924826 4.678534879418718 9.936824648595898 0 0 0
335 112 1 0.5897 1.06914180064707 3.3354583706503074 10.108884679946632 0 0 0
561 187 1 0.5897 0.7848246735252503 0.15473158741612614 8.859694065786096 0 1 0
357 119 1 0.5897 0.06225304855528959 2.176476144006823 8.404702556473609 0 0 0
24 8 1 0.5897 2.3312615309346842 0.07459609634573638 5.440525279729553 0 0 0
341 114 1 0.5897 4.064916461460076 3.1993267245448256 10.257418845979414 0 0 0
102 34 1 0.5897 0.27727948051659435 0.8824826962282875 5.099069576232374 1 0 0
651 217 1 0.5897 2.0775965757849724 2.3502581528333413 14.640161755907204 0 0 0
683 228 1 0.5897 4.579312262529787 2.6098137575869766 14.307616155895841 0 0 0
346 116 2 -1.1794 2.164554181448575 0.7744543279379683 11.963888271052033 0 0 0
347 116 1 0.5897 1.249305944155549 0.876521134212163 11.702545583618788 0 0 0
348 116 1 0.5897 2.6649604200704657 1.0076251804622511 11.181967504344406 0 0 0
350 117 1 0.5897 2.6222318366235666 4.4389194969756245 13.732437260946789 0 0 0
649 217 2 -1.1794 2.711314207884513 2.596943071151534 13.966525365935585 0 0 0
650 217 1 0.5897 2.5270654506207006 2.0063859583247705 13.236126490315888 0 0 0
336 112 1 0.5897 2.1653343212079252 4.142024493043176 10.772180127517665 0 0 0
329 110 1 0.5897 4.74256173651404 1.2165479091113596 10.794740195755502 0 0 0
334 112 2 -1.1794 1.2183073226315464 4.121896090456922 10.633799351482105 0 0 0
340 114 2 -1.1794 3.952023375143548 4.0630095880303445 10.65442559582211 0 0 0
680 227 1 0.5897 0.044333376346301634 2.23579948636519 15.342278285917844 0 0 0
652 218 2 -1.1794 4.274204500083919 1.2183816941400798 17.249698724533985 0 0 0
653 218 1 0.5897 3.4442786568384087 1.0162313427475151 17.68179120102896 0 0 0
654 218 1 0.5897 4.382336896964502 0.5232145195693514 16.600647525726373 0 0 0
658 220 2 -1.1794 1.2267665536576977 4.112462295632296 17.49563285548966 0 0 0
659 220 1 0.5897 0.6426100701621724 4.250542376403395 18.241215793432247 0 0 0
664 222 2 -1.1794 3.986346821242462 3.963527054418722 17.507834769970405 0 0 0
665 222 1 0.5897 3.034926326290728 4.0379031323214605 17.583245589200885 0 0 0
666 222 1 0.5897 4.138826381780009 3.0433626256033572 17.29244530103132 0 0 0
670 224 2 -1.1794 2.0813169036669996 0.9442340914653248 18.831078691273138 0 0 0
671 224 1 0.5897 2.3266719863158754 1.572437665374039 19.51032137718874 0 0 0
672 224 1 0.5897 1.1243287729658205 0.9304385782393217 18.851251531669906 0 0 0
681 227 1 0.5897 0.8904079881259519 2.659636087602234 16.523943249774835 0 0 0
679 227 2 -1.1794 0.8143791888126906 1.982708061485202 15.851486028051546 0 0 0
660 220 1 0.5897 0.9873056621401235 4.7988884783398635 16.872964775708247 0 0 0
884 295 1 0.5897 0.7353311002091296 0.15538700423088483 15.861663660549212 0 1 0
2 1 1 0.5897 2.5506984122942504 3.6036009897715506 20.75876900831554 0 0 -1
1 1 2 -1.1794 2.7088047833100766 2.665079014330753 20.861417238890212 0 0 -1
113 38 1 0.5897 4.824307914025828 7.645132451425835 3.829462161999299 0 0 0
141 47 1 0.5897 0.928344597502294 7.9165948977239005 1.9451851708189452 0 0 0
139 47 2 -1.1794 0.9202291130788198 8.831226523549521 1.6628477377428694 0 0 0
20 7 1 0.5897 0.8919466580820187 5.434369094919 2.475891914965844 0 0 0
14 5 1 0.5897 3.98911690520293 5.722908923228756 0.7857313627805304 0 0 0
15 5 1 0.5897 4.360564359920455 6.511651014880115 2.0233248543002578 0 0 0
19 7 2 -1.1794 0.6786354493369448 6.08291093421957 1.804991384701266 0 0 0
140 47 1 0.5897 1.010445305687535 9.333305429933029 2.472739192233474 0 0 0
13 5 2 -1.1794 4.605410289106324 5.736430451664335 1.5179946390310515 0 0 0
674 225 1 0.5897 1.7469264389858377 5.607967211669415 0.38345567385644663 0 0 1
110 37 1 0.5897 2.156027847535426 9.247732697677003 0.40077661858208713 0 0 0
112 38 2 -1.1794 4.1069198309194626 7.8447406211170945 3.227976683103449 0 0 0
114 38 1 0.5897 3.3197181026412035 7.803756838027525 3.7710595122343267 0 0 0
126 42 1 0.5897 4.15453030228762 9.72847011902473 3.2002042366149523 0 0 0
111 37 1 0.5897 3.5811755827631244 9.36733858078241 -0.09614236274360871 0 0 0
132 44 1 0.5897 1.0498306276401834 7.603771656248714 5.00644477633068 0 0 0
130 44 2 -1.1794 2.0070737395689524 7.601361286765152 4.996319644675196 0 0 0
464 155 1 0.5897 1.480630414759959 8.765901363081293 8.380942472114068 0 0 0
437 146 1 0.5897 4.213696129405455 7.474266445412722 9.654940529650265 0 0 0
468 156 1 0.5897 4.545066976698499 9.13137658539853 7.178392026660071 0 0 0
26 9 1 0.5897 1.8225739013496707 5.558381088497227 7.261182712723949 0 0 0
463 155 2 -1.1794 0.752363445899243 8.557417955218414 8.96613269008368 0 0 0
131 44 1 0.5897 2.2499972202630243 6.800319568177854 5.460659171447243 0 0 0
337 113 2 -1.1794 4.45932202154099 5.897028124127573 8.636464263982106 0 0 0
339 113 1 0.5897 3.9332154519945166 5.723178310446822 7.855973196726453 0 0 0
343 115 2 -1.1794 0.6388397863927744 5.854924955997977 8.545396929311636 0 0 0
344 115 1 0.5897 0.88086892553802 5.365110478487291 9.33131417192063 0 0 0
345 115 1 0.5897 0.7149370510696689 6.7739174945142215 8.802300773226662 0 0 0
433 145 2 -1.1794 2.7436251686307718 9.184685042437264 7.1513251761011905 0 0 0
435 145 1 0.5897 2.420197686488192 8.743935817642585 6.365640808095589 0 0 0
25 9 2 -1.1794 2.5497585683790587 5.394570742224281 6.660643567024309 0 0 0
438 146 1 0.5897 4.184554729959463 8.898150088306766 10.168584210047463 0 0 0
443 148 1 0.5897 0.9648072543955591 9.932218752570309 10.177678340665715 0 0 0
757 253 2 -1.1794 2.745323121385615 9.222331870761494 14.1646014338783 0 0 0
792 264 1 0.5897 4.592259439219816 9.140658801983259 14.285138761952311 0 0 0
533 178 1 0.5897 0.3815794226464142 7.558129974967273 12.070747082582427 1 0 0
351 117 1 0.5897 3.4210341280387433 5.605769785938023 14.27330119430923 0 0 0
454 152 2 -1.1794 2.1276030004063955 7.548427722285164 12.077224875148875 0 0 0
455 152 1 0.5897 2.8353973995848736 7.672649322272414 11.444879902291117 0 0 0
456 152 1 0.5897 2.3300183152791054 6.715505998540614 12.50333877263539 0 0 0
759 253 1 0.5897 2.4884370702148355 8.675913708360712 13.421889418234219 0 0 0
668 223 1 0.5897 1.2606194257128693 5.8910836342492425 14.899004080466948 0 0 0
349 117 2 -1.1794 2.654474811434866 5.395614140000894 13.739892297344188 0 0 0
789 263 1 0.5897 1.5033042633767233 8.943456335674599 15.465304220085878 0 0 0
661 221 2 -1.1794 4.672897712081495 5.778646256339986 15.536277230625874 0 0 0
436 146 2 -1.1794 4.227522734240429 7.988105055485799 10.462358181995059 0 0 0
667 223 2 -1.1794 0.6309538014397641 6.041148547381678 15.604148156716162 0 0 0
787 263 2 -1.1794 0.8008448072842126 8.769614537273354 16.09187926329775 0 0 0
788 263 1 0.5897 0.9075986703506498 9.44212416559508 16.76459467288023 0 0 0
663 221 1 0.5897 4.469453864377393 6.581975275778286 16.01540178225978 0 0 0
780 260 1 0.5897 2.9167806205583244 7.583944439668651 18.23024732979322 0 0 0
669 223 1 0.5897 0.7545709585905555 6.959364970235958 15.844853831730646 0 0 0
675 225 1 0.5897 2.3554878607684437 6.023991911906565 20.13940893722191 0 0 0
760 254 2 -1.1794 4.3132841026875655 7.958737201942007 17.170310388287902 0 0 0
761 254 1 0.5897 4.245095322923941 8.912859457978895 17.133425798453032 0 0 0
779 260 1 0.5897 2.4438880482588985 8.19740001773625 19.530909162635705 0 0 0
778 260 2 -1.1794 2.2890253138525 7.458900902531448 18.941942067774068 0 0 0
858 286 1 0.5897 0.44024026093879387 7.414900531246011 18.748204659512773 1 0 0
762 254 1 0.5897 4.964665667139184 7.790825848312634 17.851300155486985 0 0 0
662 221 1 0.5897 4.44196410173044 5.073433681199717 16.14091400666875 0 0 0
109 37 2 -1.1794 2.6718334419486305 9.495029904497539 20.711495728992187 0 0 -1
673 225 2 -1.1794 2.459085462513524 5.39914022353667 20.85705808705917 0 0 0
783 261 1 0.5897 1.7819478212143391 12.372661699907475 0.3217826962874737 0 0 1
118 40 2 -1.1794 1.2693173701870588 10.679707083306155 3.6390163966067766 0 0 0
119 40 1 0.5897 2.221974002443809 10.704507450236676 3.7298506104100837 0 0 0
120 40 1 0.5897 1.0739558411777284 11.343359689475253 2.9774896273979135 0 0 0
122 41 1 0.5897 4.452833959021596 11.794966884880223 2.003179528738026 0 0 0
123 41 1 0.5897 3.985791749709059 12.36299860466149 0.6799749236194036 0 0 0
124 42 2 -1.1794 4.018977725037722 10.665305165420106 3.3427429927741517 0 0 0
240 80 1 0.5897 2.76452406097372 14.005431475918115 4.276565168405888 0 0 0
127 43 2 -1.1794 0.7327811987112733 12.641979939812027 1.7702954316585107 0 0 0
129 43 1 0.5897 0.9055435305442237 13.566242260676496 1.9498576904715197 0 0 0
220 74 2 -1.1794 4.221065878830321 14.389246051723699 3.25552189218198 0 0 0
222 74 1 0.5897 4.3498434380450055 13.926354087246661 2.427702590172361 0 0 0
125 42 1 0.5897 4.590070766833534 10.880961013396442 4.080001797673727 0 0 0
121 41 2 -1.1794 4.6978085564730865 12.416298637622637 1.3175107460790907 0 0 0
238 80 2 -1.1794 2.077675100000259 13.959971123399674 4.94171291189489 0 0 0
317 106 1 0.5897 0.2163931901742124 13.873584175095097 4.800700870631319 1 0 0
133 45 2 -1.1794 2.5245803868564285 11.928028194103794 6.781914435317827 0 0 0
134 45 1 0.5897 1.8241965145917562 12.209085184133338 7.370765082756517 0 0 0
135 45 1 0.5897 3.331702617561349 12.172155197982788 7.2350092586221395 0 0 0
239 80 1 0.5897 2.3140998802382966 13.204162190824482 5.479407861064755 0 0 0
573 191 1 0.5897 0.8636662293686593 14.502256049675651 9.07402650982573 0 0 0
446 149 1 0.5897 4.406869869284783 13.308022077502347 8.975346320823949 0 0 0
450 150 1 0.5897 4.1817695655807245 11.34365378928278 9.672821020223145 0 0 0
451 151 2 -1.1794 0.6570275862102793 12.6292251295935 8.701425289350599 0 0 0
453 151 1 0.5897 0.8435842678248413 11.980412668690118 9.379988840533532 0 0 0
445 149 2 -1.1794 4.594173532825123 12.540995595662652 8.434188316665043 0 0 0
544 182 2 -1.1794 4.218913148846518 14.606969005258353 10.272286514496134 0 0 0
434 145 1 0.5897 2.6194847139133515 10.116773381432406 6.972022459883993 0 0 0
444 148 1 0.5897 2.0774575391465984 10.81186835619074 10.707240810033117 0 0 0
758 253 1 0.5897 2.637356404089736 10.120218119252563 13.8508014513731 0 0 0
457 153 2 -1.1794 2.538383606701604 11.892438748470665 13.553874924543823 0 0 0
458 153 1 0.5897 1.8327037652752953 12.075878291113572 14.174062261679929 0 0 0
459 153 1 0.5897 3.3405370673124453 12.08961958685379 14.037609539668562 0 0 0
564 188 1 0.5897 2.291195541878085 14.7254185213485 12.513806496748463 0 0 0
562 188 2 -1.1794 2.0767021550574642 14.032162826718396 11.889607166223069 0 0 0
563 188 1 0.5897 2.2568122067337626 13.219423038177059 12.362149327479973 0 0 0
449 150 1 0.5897 4.449326749326923 11.010154601596508 11.124965154549773 0 0 0
442 148 2 -1.1794 1.12405640049825 10.752549592980598 10.644570191386574 0 0 0
545 182 1 0.5897 3.443048771553781 14.373473164470107 10.782023136163593 0 0 0
769 257 2 -1.1794 4.606019358355173 12.46330492852837 15.359346813624121 0 0 0
642 214 1 0.5897 0.2702727132175995 14.158505087012413 11.970314863315664 1 0 0
546 182 1 0.5897 4.9554002491221185 14.401564022505813 10.84820871613018 0 0 0
775 259 2 -1.1794 0.7973329601956718 12.705330949987685 15.538471889545049 0 0 0
448 150 2 -1.1794 3.888383724636723 10.776067692285913 10.385539853574103 0 0 0
766 256 2 -1.1794 1.3208507850170894 11.028334282113638 17.690392351784908 0 0 0
767 256 1 0.5897 0.6292523513013168 11.135904232111075 18.343359732762096 0 0 0
768 256 1 0.5897 1.1280232211249357 11.689482840071335 17.025624019669632 0 0 0
772 258 2 -1.1794 4.046170645469402 10.72532840034853 17.432630769214693 0 0 0
773 258 1 0.5897 3.1156566417168117 10.849714918278439 17.61993224313459 0 0 0
774 258 1 0.5897 4.2247953805806295 11.316270102190133 16.701148229766968 0 0 0
771 257 1 0.5897 4.401668001442285 13.251692337264092 15.862303436678069 0 0 0
965 322 1 0.5897 0.3545889381094177 14.147104655270766 18.99810354714372 1 0 0
868 290 2 -1.1794 4.146674867506499 14.579423499315471 17.071369477919568 0 0 0
869 290 1 0.5897 3.384653132168158 14.405352773473776 17.62393082503862 0 0 0
886 296 2 -1.1794 2.126274820097717 14.235011356929022 18.880483750812566 0 0 0
888 296 1 0.5897 2.3266475232286665 13.47343914529867 19.42465634379042 0 0 0
782 261 1 0.5897 2.4633957528856545 11.276315823502621 20.608936846151067 0 0 0
870 290 1 0.5897 4.897909883220229 14.447375355956563 17.649727081254703 0 0 0
781 261 2 -1.1794 2.453316224876352 12.225353601325043 20.733757043076118 0 0 0
777 259 1 0.5897 0.8920005515187586 13.646431986174274 15.685846474072733 0 0 0
887 296 1 0.5897 2.2136450423480194 14.9824795787688 19.472010843401883 0 0 0
249 83 1 0.5897 1.5880264890738538 15.624125741713076 1.2733223063801207 0 0 0
248 83 1 0.5897 1.0601310173857705 16.065230954557826 2.6218003741627496 0 0 0
247 83 2 -1.1794 0.9737310315787506 15.375315493119501 1.9639485001266177 0 0 0
890 297 1 0.5897 1.8795511263212223 19.021992458998277 0.11482326107353175 0 0 1
226 76 2 -1.1794 1.3639779792899338 17.582229374148007 3.595985913488429 0 0 0
227 76 1 0.5897 1.1653822540188026 18.258996109227155 2.9488594205322443 0 0 0
228 76 1 0.5897 0.6985803381645685 17.69654133924908 4.274528684493177 0 0 0
229 77 2 -1.1794 4.500992599196257 19.139520188000553 1.3552740796826623 0 0 0
230 77 1 0.5897 4.033961926982559 19.092439331241735 0.5211207117743349 0 0 0
232 78 2 -1.1794 4.114627818254543 17.172381481219084 3.306113833998341 0 0 0
233 78 1 0.5897 4.3026511314641445 17.76110082003847 2.575195417413033 0 0 0
234 78 1 0.5897 3.1812326398952164 17.295460017877403 3.47942544337373 0 0 0
235 79 2 -1.1794 0.8458597718107724 19.335065468845087 1.5579545990324686 0 0 0
221 74 1 0.5897 4.1900852553734556 15.314248353678964 3.0110841739268066 0 0 0
219 73 1 0.5897 3.4890806033080763 15.941137023076788 -0.04232585584053972 0 0 0
217 73 2 -1.1794 2.555449866306709 16.104537566352704 -0.17666648556858125 0 0 0
558 186 1 0.5897 4.066806834386741 17.843962665644717 9.919184219075783 0 0 0
576 192 1 0.5897 4.387170806031215 15.85305723489186 7.176095864349003 0 0 0
572 191 1 0.5897 0.9639559729172346 15.888867374706031 9.673483612858442 0 0 0
241 81 2 -1.1794 2.5316159490072776 18.740506998129256 6.709909813551632 0 0 0
242 81 1 0.5897 2.506458368190337 17.791631347985835 6.585986171795766 0 0 0
243 81 1 0.5897 1.8348876558465657 18.918568800674848 7.341674226782355 0 0 0
541 181 2 -1.1794 2.5897618854721665 15.995603456003009 6.744100556385468 0 0 0
542 181 1 0.5897 2.0298142520021822 15.76222242231728 7.484502897052669 0 0 0
551 184 1 0.5897 0.9770982381191968 18.02676703401586 10.087689007591186 0 0 0
553 185 2 -1.1794 4.38434122698748 19.06871932912737 8.646159523529214 0 0 0
555 185 1 0.5897 3.8848440492441596 18.958279447803697 7.8371665370836965 0 0 0
559 187 2 -1.1794 0.6536844846548343 19.209735823562973 8.752925219336374 0 0 0
571 191 2 -1.1794 0.8699213627123084 15.430119584253982 8.838714006530228 0 0 0
543 181 1 0.5897 2.371494943303102 15.35512468144168 6.067077921623048 0 0 0
867 289 1 0.5897 2.1439923226510067 15.796111956369998 14.468582961543095 0 0 0
885 295 1 0.5897 1.2890208976168056 19.03482852948264 15.003753947870338 0 0 0
866 289 1 0.5897 3.568942552400798 15.91469576767726 13.970855264850258 0 0 0
879 293 1 0.5897 4.114488980291917 19.081609383378556 14.876655808177937 0 0 0
550 184 2 -1.1794 1.1487501560409152 17.400044695843363 10.790508520203382 0 0 0
552 184 1 0.5897 2.1028337207416237 17.37966047070441 10.86619768303072 0 0 0
565 189 2 -1.1794 2.623119119628814 18.784317343143478 13.890027025980176 0 0 0
566 189 1 0.5897 2.5731363916441192 17.87877072391869 13.583734334643262 0 0 0
567 189 1 0.5897 2.5025287881493705 19.311822301312432 13.100499401713613 0 0 0
865 289 2 -1.1794 2.658491583702371 15.9986837148959 13.687279450943198 0 0 0
556 186 2 -1.1794 3.8926909496962234 17.323137796612812 10.703138814099676 0 0 0
896 299 1 0.5897 0.1734895417088981 15.672516346085082 15.341276873945278 0 0 0
557 186 1 0.5897 4.044322424759896 16.418591613859363 10.429023715332487 0 0 0
877 293 2 -1.1794 4.789406722924765 19.096859306876475 15.555253201404403 0 0 0
881 294 1 0.5897 3.0443666569957 17.413068735199694 17.700232661618504 0 0 0
897 299 1 0.5897 1.009866406998764 16.044417884585144 16.54707460540081 0 0 0
891 297 1 0.5897 2.3400905657248448 19.478743678146373 19.82518226670752 0 0 0
882 294 1 0.5897 4.061391859333636 16.377688879666408 17.269099834921455 0 0 0
874 292 2 -1.1794 1.196684739366471 17.466729447758155 17.6973850999397 0 0 0
875 292 1 0.5897 0.5936768647417527 17.648314928344043 18.418234463222657 0 0 0
876 292 1 0.5897 1.0053212909104543 18.143685632818006 17.048281468700413 0 0 0
878 293 1 0.5897 4.5590654567166675 18.374019958119156 16.138946944544294 0 0 0
880 294 2 -1.1794 3.9779763867561315 17.29676093999951 17.52343745449132 0 0 0
889 297 2 -1.1794 2.489627770871736 18.804696163166156 20.4881431550785 0 0 0
895 299 2 -1.1794 0.9794458385272428 15.442302689921855 15.803629396706162 0 0 0
218 73 1 0.5897 2.50247149502951 17.037643876319308 20.69449265897976 0 0 -1
883 295 2 -1.1794 0.6141642127904893 19.225760668762113 15.655187764235224 0 0 0
69 23 1 0.5897 6.66334748398331 2.228375420594652 1.413143004638442 0 0 0
273 91 1 0.5897 7.387997925466863 0.2627124253242616 1.6885845699904396 0 1 0
68 23 1 0.5897 8.167258378980563 2.288094332842305 1.2486658251429998 0 0 0
67 23 2 -1.1794 7.482877948057759 2.097388157667983 1.890159265312684 0 0 0
46 16 2 -1.1794 7.880858510278559 4.195802762587355 3.6349303173214436 0 0 0
47 16 1 0.5897 7.677700744560369 3.4064509415580186 3.133005411552643 0 0 0
48 16 1 0.5897 7.2172552762398325 4.219108006000032 4.3243662556234375 0 0 0
9 3 1 0.5897 5.073518120594075 4.336290259437921 4.773272190708871 0 0 0
34 12 2 -1.1794 5.396822229989147 2.4868042602869336 0.17596001309178622 0 0 0
53 18 1 0.5897 9.715068580694611 4.0444274896846935 3.6498526018743216 0 0 0
29 10 1 0.5897 6.947811793458582 0.7147869997085735 4.9114297937274145 0 0 0
58 20 2 -1.1794 8.72991950069618 0.752941553791274 4.909961643336123 0 0 0
37 13 2 -1.1794 9.28775985254743 2.668677083095044 -0.12444607668305444 0 0 0
28 10 2 -1.1794 6.005218970636399 0.6077531150351168 5.039802818185901 0 0 0
8 3 1 0.5897 5.704524398838719 3.83653990955263 6.055375115102185 0 0 0
391 131 2 -1.1794 7.545990294951365 1.9482687157169285 8.898507926962361 0 0 0
393 131 1 0.5897 7.455469253593392 0.9955911443277391 8.874600959376975 0 0 0
360 120 1 0.5897 5.669521075927804 1.7238530435479142 6.424562058438458 0 0 0
361 121 2 -1.1794 9.320152475960265 2.6054884205569615 6.8778787037123355 0 0 0
7 3 2 -1.1794 5.770048832600081 4.5313145600316425 5.400230476838942 0 0 0
392 131 1 0.5897 8.243800343262945 2.1388663133488013 8.271613132000262 0 0 0
362 121 1 0.5897 9.228192639776458 3.5258214140200117 6.631166060638241 0 0 0
358 120 2 -1.1794 5.483804736907308 2.372716115028177 7.103309901769073 0 0 0
359 120 1 0.5897 6.140552952328402 2.2070105364741575 7.779670763327341 0 0 0
59 20 1 0.5897 8.888369089115026 1.4645821829501997 5.530198692351222 0 0 0
371 124 1 0.5897 7.713229574873881 3.3722000960489824 10.076007321492577 0 0 0
352 118 2 -1.1794 5.8493251990464525 0.7994010648701836 12.19290910386556 0 0 0
353 118 1 0.5897 6.796078588465935 0.8586882649584286 12.064227895133923 0 0 0
354 118 1 0.5897 5.675024561746337 1.3557189267268812 12.952054237209808 0 0 0
684 228 1 0.5897 5.744218358921349 3.3754801885959727 13.71690687750852 0 0 0
372 124 1 0.5897 7.358805330659103 4.296481246436587 11.221381552116565 0 0 0
685 229 2 -1.1794 9.229130061930448 2.750223867233602 13.93407850768386 0 0 0
382 128 2 -1.1794 8.617002559253274 0.7633698205878631 12.072707245822816 0 0 0
383 128 1 0.5897 8.81795690156495 1.4598076094310237 12.69786897082407 0 0 0
384 128 1 0.5897 9.286706574825596 0.8494826543046563 11.394238119369042 0 0 0
682 228 2 -1.1794 5.534689265533182 2.606520217941469 14.247061441415584 0 0 0
686 229 1 0.5897 8.746307080835688 2.5284924968176186 14.730243494556127 0 0 0
370 124 2 -1.1794 7.940704078002949 4.216460926756978 10.465611106348813 0 0 0
331 111 2 -1.1794 6.035860101733923 4.603345102971176 12.405028246349639 0 0 0
386 129 1 0.5897 9.137273566383136 4.607036299953939 13.906148805468424 0 0 0
332 111 1 0.5897 5.276956743336494 4.4344520541937085 11.846602058987099 0 0 0
717 239 1 0.5897 6.808455511933656 2.3350775189909267 15.489935658115245 0 0 0
377 126 1 0.5897 9.727081660580511 4.0136218418342064 10.36786966862129 0 0 0
716 239 1 0.5897 7.602140151294366 1.1850426830022163 16.072717159510777 0 0 0
38 13 1 0.5897 9.123482929215172 2.096096893745389 20.20449228599064 0 0 -1
655 219 2 -1.1794 5.746833509932736 4.653476058096758 19.55370152356256 0 0 0
657 219 1 0.5897 6.55968652649949 4.411399924342199 19.109843054716595 0 0 0
676 226 2 -1.1794 6.016599428948857 0.64691000772856 19.307181794048503 0 0 0
715 239 2 -1.1794 7.580099437688753 2.140710719110359 16.022004820777127 0 0 0
694 232 2 -1.1794 7.920627022427414 4.04207782246778 18.011729763836332 0 0 0
695 232 1 0.5897 7.793668726803869 3.27014336011873 17.460136774200517 0 0 0
35 12 1 0.5897 5.6118478738863065 1.8035225053176147 20.619207979061397 0 0 -1
706 236 2 -1.1794 8.752856370570541 0.851321955961273 18.912246580551987 0 0 0
708 236 1 0.5897 7.796251360987193 0.8255146142695367 18.886462413464642 0 0 0
677 226 1 0.5897 5.434462950231191 0.8365906757377475 18.571424387899615 0 0 0
710 237 1 0.5897 9.172292753698553 4.51867877392816 20.69744622661492 0 0 0
702 234 1 0.5897 9.675969800692677 4.1376856317650965 17.938339976643107 0 0 0
707 236 1 0.5897 8.997390193194974 0.12150183134911414 19.481300461260794 0 0 0
36 12 1 0.5897 5.498414316606882 3.3058066881400188 20.769154709696302 0 0 -1
696 232 1 0.5897 7.7343941842660024 4.782772206846669 17.434718514580855 0 0 0
656 219 1 0.5897 5.056449070012618 4.428513299615017 18.929981641557468 0 0 0
143 48 1 0.5897 6.02812106198072 9.140679378831846 0.8559964664503079 0 0 0
176 59 1 0.5897 7.506959334350864 7.9146177313626485 1.9567583616459299 0 0 0
177 59 1 0.5897 8.136708563420852 9.092282347535273 1.2435979801510522 0 0 0
711 237 1 0.5897 8.54289444352824 5.648311754667196 0.40657188599997374 0 0 1
175 59 2 -1.1794 7.47218063805661 8.869286154430075 1.8954618901612341 0 0 0
55 19 2 -1.1794 7.344605813373168 6.0977997380086455 1.7126076212827106 0 0 0
56 19 1 0.5897 6.4239372886045105 5.916487662216176 1.523124776060667 0 0 0
57 19 1 0.5897 7.555002719427055 5.525405856692246 2.450361603158336 0 0 0
166 56 2 -1.1794 8.674243130086651 7.4251837767340145 4.782246772942762 0 0 0
142 48 2 -1.1794 5.382758590750466 9.233177272782394 0.15515614133250422 0 0 0
138 46 1 0.5897 6.912863447679639 7.3034433548577 4.953534286390762 0 0 0
145 49 2 -1.1794 9.346170033404839 9.484418780399569 -0.04925641395616445 0 0 0
167 56 1 0.5897 8.873496006961442 6.628073869215102 5.2733660297027365 0 0 0
61 21 2 -1.1794 9.126668430783429 5.312434118950804 6.5059067397076165 0 0 0
467 156 1 0.5897 5.692828050655878 8.408984646464862 6.505372859671611 0 0 0
499 167 2 -1.1794 7.545130166895331 8.614860918083851 8.863874765241997 0 0 0
62 21 1 0.5897 8.42609290955903 5.494926382261155 7.132127993429134 0 0 0
338 113 1 0.5897 5.364843966674485 5.794134697089203 8.343496470958062 0 0 0
469 157 2 -1.1794 9.219348596897122 9.285264586869863 6.74539490761588 0 0 0
500 167 1 0.5897 7.655599596902499 9.275587633109707 9.547574368618712 0 0 0
470 157 1 0.5897 8.682295515157927 9.063351720615907 7.505998034871286 0 0 0
501 167 1 0.5897 6.762879130078819 8.891842839471668 8.386704159213945 0 0 0
381 127 1 0.5897 7.456833923411812 5.350011294919943 9.12589871684843 0 0 0
379 127 2 -1.1794 7.205704763327852 5.869477336041634 8.362185197268158 0 0 0
380 127 1 0.5897 7.31561011051254 6.777969672659344 8.643070582872257 0 0 0
466 156 2 -1.1794 5.4986196027110665 9.138349789938689 7.094064675448362 0 0 0
168 56 1 0.5897 8.861707759850953 8.137228817375176 5.393874773614729 0 0 0
137 46 1 0.5897 5.836747553486478 6.311598572144278 5.341433657298692 0 0 0
63 21 1 0.5897 9.933679821630832 5.478226151178724 6.993323066050776 0 0 0
136 46 2 -1.1794 5.982871106050371 7.24237277798919 5.172143477396086 0 0 0
791 264 1 0.5897 5.929878584567475 9.042436214885527 14.987491964450296 0 0 0
794 265 1 0.5897 9.239940131569027 8.722614709806702 13.592429280273471 0 0 0
790 264 2 -1.1794 5.535578502126317 9.165856189778063 14.124115516183894 0 0 0
333 111 1 0.5897 6.0916957077110885 5.557832786653763 12.451877714848917 0 0 0
793 265 2 -1.1794 9.380057665022644 9.287886876915328 14.352039122540374 0 0 0
385 129 2 -1.1794 9.130586201684688 5.523244263838374 14.183369479196443 0 0 0
387 129 1 0.5897 9.07219892514055 6.02049000201259 13.367599391042898 0 0 0
460 154 2 -1.1794 6.296319157028857 7.349078501802386 12.172695915789179 0 0 0
461 154 1 0.5897 6.104816311020813 7.910311290448123 12.924039751243264 0 0 0
462 154 1 0.5897 5.64977171282076 7.601742010736371 11.513616164387797 0 0 0
490 164 2 -1.1794 9.014482382808863 7.454334193969768 12.23832816642938 0 0 0
491 164 1 0.5897 9.484739845763498 7.5882017309472 11.415472484580983 0 0 0
492 164 1 0.5897 8.08937755213418 7.493187093325955 11.995283374558884 0 0 0
705 235 1 0.5897 7.906239499773822 5.86903807491336 15.488590874045594 0 0 0
824 275 1 0.5897 8.100982548694645 8.999290545429163 15.590372385603324 0 0 0
814 272 2 -1.1794 8.717556364016046 7.571948865959483 19.11288735646232 0 0 0
786 262 1 0.5897 6.954303918518573 7.4950729334090305 19.136884296812052 0 0 0
815 272 1 0.5897 8.897465450401338 6.773399864185135 19.60910253222603 0 0 0
816 272 1 0.5897 8.884353339778169 8.282317494538963 19.732393763898937 0 0 0
823 275 2 -1.1794 7.383612638730728 8.83019732912321 16.201158658789485 0 0 0
703 235 2 -1.1794 7.339894155999417 6.038711908547328 16.241359401287077 0 0 0
825 275 1 0.5897 7.44009245896869 7.892244483025082 16.3839188669894 0 0 0
784 262 2 -1.1794 6.013613018579197 7.409806155168342 19.292591694750843 0 0 0
785 262 1 0.5897 5.8791829905104 6.474134160632536 19.443586275483177 0 0 0
144 48 1 0.5897 5.614456255684874 8.551632074060505 20.602416813360527 0 0 -1
704 235 1 0.5897 6.452088726428744 5.90687559033271 15.908493960004797 0 0 0
709 237 2 -1.1794 9.204067273788322 5.467981805618035 20.816474503532007 0 0 0
154 52 2 -1.1794 7.97271301192096 10.788340638244174 3.748642645979595 0 0 0
819 273 1 0.5897 8.469465892957608 12.473474881936843 0.3128461011885858 0 0 1
156 52 1 0.5897 8.92758030694033 10.845047865519456 3.786551559507088 0 0 0
163 55 2 -1.1794 7.406012643654717 12.772787905313972 1.8229829195248843 0 0 0
164 55 1 0.5897 6.492659166328679 12.629209054970843 1.5748551917072324 0 0 0
165 55 1 0.5897 7.571468034654098 12.129323150343652 2.512029298365832 0 0 0
285 95 1 0.5897 7.578610024848629 14.626861670811003 1.8101746099887106 0 0 0
276 92 1 0.5897 9.30132344654397 14.135944850138076 4.483036040771625 0 0 0
246 82 1 0.5897 5.522798505724677 14.14674709939779 4.489354935183362 0 0 0
275 92 1 0.5897 7.891110655439677 13.95023903006744 5.001763211215191 0 0 0
116 39 1 0.5897 6.6295056484003 10.992093040155655 4.9034766804466825 0 0 0
155 52 1 0.5897 7.799099022746152 10.053409271212628 3.1604445681470916 0 0 0
115 39 2 -1.1794 5.822469692908243 11.243015156304134 5.353000532338785 0 0 0
169 57 2 -1.1794 9.324556570898231 11.992011590154448 7.11592581637852 0 0 0
170 57 1 0.5897 9.179785179438225 12.545417914319595 6.348494832190609 0 0 0
171 57 1 0.5897 9.238752271175647 11.097358773362101 6.7864425875983905 0 0 0
117 39 1 0.5897 5.687443865542101 10.555556623846838 6.005218025424436 0 0 0
488 163 1 0.5897 7.9988167963650385 12.444161389395665 8.18942262620933 0 0 0
487 163 2 -1.1794 7.300915557686918 12.661312950267783 8.807523538658392 0 0 0