LAMMPS data file via write_data, version 30 Jul 2021, timestep = 9250000

1920 atoms
2 atom types
1280 bonds
1 bond types
640 angles
1 angle types

-0.03151033061479325 24.761511330604694 xlo xhi
-0.13026864469058275 24.860269644691265 ylo yhi
-0.06318931260409322 22.87318931260316 zlo zhi

Masses

1 1.008
2 15.999

Pair Coeffs # lj/cut/tip4p/long/omp

1 0 0
2 0.21084 3.1668

Bond Coeffs # harmonic/omp

1 450 0.9572

Angle Coeffs # harmonic/omp

1 55 104.52

Atoms # full

1 1 2 -1.1794 4.440938356417944 1.3880360516008337 4.073860308256997 0 0 0
2 1 1 0.5897 4.595860353658632 2.180932800080785 4.5871460281141285 0 0 0
3 1 1 0.5897 5.265849677758526 1.2353514991086052 3.613185949601189 0 0 0
4 2 2 -1.1794 2.812468393911333 0.9343636959013768 1.8802961415971655 0 0 0
5 2 1 0.5897 3.2473711030312695 1.017152330709548 2.728897750431766 0 0 0
6 2 1 0.5897 1.878161652317235 0.9457753019219575 2.087440120542387 0 0 0
10 4 2 -1.1794 3.137685941950018 4.653288121731249 3.4190902865581774 0 0 0
11 4 1 0.5897 2.935438028044162 5.391846625433111 3.993367983502581 0 0 0
12 4 1 0.5897 2.5361026221706924 4.751311567278273 2.6811389732394626 0 0 0
14 5 1 0.5897 2.2502308697720563 3.329399841527536 4.349815934532847 0 0 0
22 8 2 -1.1794 1.3250565330260504 4.894425511035586 1.445967771932196 0 0 0
24 8 1 0.5897 1.1884472185546824 5.564045000217847 0.7758138827989087 0 0 0
13 5 2 -1.1794 1.62765898994998 2.806491825895459 4.854834688191031 0 0 0
15 5 1 0.5897 1.8952840683469483 1.9004032315397663 4.701471250702468 0 0 0
9 3 1 0.5897 4.999324338098156 4.667899954281192 3.3775893046556087 0 0 0
23 8 1 0.5897 0.7047487171186595 5.11887132030084 2.1394560369875437 0 0 0
21 7 1 0.5897 5.465893203013167 2.5877571291366537 1.0418117373611135 0 0 0
20 7 1 0.5897 3.9877614002504647 2.5310883859223434 1.3629752957002352 0 0 0
19 7 2 -1.1794 4.612871557191355 2.8970653871597074 0.7373790668575674 0 0 0
1455 485 1 0.5897 1.35301404339745 3.553218769395207 0.2563176349543112 0 0 1
27 9 1 0.5897 4.867245866079689 4.911784764102593 0.42041330782472836 0 0 0
16 6 2 -1.1794 0.03159534250833075 1.4405944264597852 2.1020148353448587 0 0 0
1470 490 1 0.5897 1.563779539576182 -0.0031513805515678284 0.003247335433041426 0 0 1
98 33 1 0.5897 0.29166277091476656 5.497491458248853 4.087757378903993 1 0 0
28 10 2 -1.1794 1.8322544158908747 0.12814841905198954 4.667287444473823 0 0 0
7 3 2 -1.1794 5.936549258145304 4.561909681268403 3.539938727245287 0 0 0
25 9 2 -1.1794 4.83046400828343 5.868212803345127 0.41319896099103864 0 0 0
507 169 1 0.5897 4.971209115607446 6.0112050474868095 5.51222938877207 0 0 0
867 289 1 0.5897 4.547462924241859 -0.10510934091939705 5.601023203061762 0 1 0
8 3 1 0.5897 6.124965752704476 5.163907212967187 4.259835331558423 0 0 0
505 169 2 -1.1794 4.89506020851454 5.741745126334239 6.427517276557712 0 0 0
578 193 1 0.5897 0.057376323194810994 3.929238223810149 9.173881813572136 1 0 0
495 165 1 0.5897 0.8016207646316567 3.182323637075722 11.184966621963222 0 0 0
508 170 2 -1.1794 1.5333630102424036 0.001118273413132781 10.577760408777033 0 0 0
501 167 1 0.5897 4.708471052206381 4.024645742682475 6.312146045528295 0 0 0
487 163 2 -1.1794 6.104293443353927 4.154071942815381 9.292178564661851 0 0 0
1347 449 1 0.5897 4.266468250837329 -0.12301328384039042 11.319891332324776 0 1 0
503 168 1 0.5897 0.7406589966384398 4.770247392428119 7.510841488366175 0 0 0
527 176 1 0.5897 5.885688795394959 0.536773313813111 7.544420395535733 0 0 0
499 167 2 -1.1794 4.683369409473191 3.0695834135862645 6.253989730876644 0 0 0
629 210 1 0.5897 1.8719039388452303 6.060714269649214 9.986380954722094 0 0 0
504 168 1 0.5897 1.5160948214305423 4.118626160496264 6.385825123591787 0 0 0
484 162 2 -1.1794 2.676535135070236 1.48525424084207 7.8382064026249125 0 0 0
483 161 1 0.5897 4.872317844644548 1.8110903474378208 10.671765086685115 0 0 0
482 161 1 0.5897 5.381481174538728 1.1090866763859977 9.430961261452646 0 0 0
481 161 2 -1.1794 4.629322276221253 1.152375761598918 10.021232121253673 0 0 0
492 164 1 0.5897 2.605162822007316 3.876604088555946 9.786628017443304 0 0 0
502 168 2 -1.1794 1.5935811793331034 4.776544749347531 7.076693024191017 0 0 0
490 164 2 -1.1794 3.1401503768885175 4.508853433693174 9.306878995895426 0 0 0
493 165 2 -1.1794 1.1110066242422838 2.8008664356694903 10.36343941080481 0 0 0
500 167 1 0.5897 3.8212086219324846 2.8310312025592546 6.594233450903782 0 0 0
488 163 1 0.5897 5.188345405627352 4.424236282133294 9.228689914518878 0 0 0
494 165 1 0.5897 1.186644544296337 1.864544343595739 10.54709618924316 0 0 0
491 164 1 0.5897 2.6427311297051705 4.687665782951953 8.508940179794033 0 0 0
486 162 1 0.5897 3.228102748450283 1.0377121416230886 7.19666928474106 0 0 0
485 162 1 0.5897 3.2116658473569877 1.5217869681234801 8.63093817848981 0 0 0
498 166 1 0.5897 0.8170974755206394 1.6771581908706186 7.836575684301043 0 0 0
528 176 1 0.5897 5.8830740680204485 2.041071793904424 7.374791697245849 0 0 0
579 193 1 0.5897 0.14626433111545684 5.345367906195243 9.701489837458258 1 0 0
961 321 2 -1.1794 4.501015842838103 1.5099893085558544 15.693904228395272 0 0 0
962 321 1 0.5897 5.232071256339427 1.488880773993749 15.07652753305087 0 0 0
963 321 1 0.5897 4.561945751140234 0.6798746760905556 16.166513034707272 0 0 0
964 322 2 -1.1794 2.6563643930370797 1.563963402465612 13.448348753450997 0 0 0
965 322 1 0.5897 3.0344078860466905 1.54499959836225 14.327467975406604 0 0 0
966 322 1 0.5897 1.7109981642562193 1.527154348102403 13.592894960550083 0 0 0
970 324 2 -1.1794 3.246718336382818 4.330160215083617 14.67228833226371 0 0 0
971 324 1 0.5897 4.171380936471244 4.089873318928899 14.729127407055955 0 0 0
972 324 1 0.5897 2.825594053553356 3.8306503374099306 15.371763100057334 0 0 0
975 325 1 0.5897 1.1045062242390937 2.946108570620335 15.703073602901355 0 0 0
982 328 2 -1.1794 1.1711627802875313 4.366741241446946 12.821533025223214 0 0 0
984 328 1 0.5897 2.0434815322805897 4.215130433258931 13.184940317341585 0 0 0
973 325 2 -1.1794 1.8070454062503085 2.655336911786868 16.284401264683808 0 0 0
983 328 1 0.5897 1.2139806869116845 5.249960871581297 12.45514309408238 0 0 0
980 327 1 0.5897 4.026543126451996 2.5587727250760266 12.584211955132737 0 0 0
990 330 1 0.5897 1.7338983755093857 0.962727015551746 16.581927765437328 0 0 0
987 329 1 0.5897 4.554325226012259 4.636686351820046 12.14707141432618 0 0 0
979 327 2 -1.1794 4.849774234192145 2.8521689887763975 12.194051663322382 0 0 0
981 327 1 0.5897 5.528659762490683 2.4378391065176666 12.726508123601079 0 0 0
1109 370 1 0.5897 0.5422695196392486 5.481568702950755 16.086347631676738 0 0 0
1110 370 1 0.5897 1.988835195139525 5.897826085109766 15.926875710064841 0 0 0
985 329 2 -1.1794 4.695394180075447 5.52296826288457 11.814277921969106 0 0 0
1108 370 2 -1.1794 1.2254452449728892 6.0150994487335225 16.49214243305161 0 0 0
967 323 2 -1.1794 6.129739353039717 4.204750505280208 15.212201711582434 0 0 0
1346 449 1 0.5897 3.6827222902948162 0.17748779767947415 12.683934166161551 0 1 0
986 329 1 0.5897 3.9803446355192706 6.036821763474497 12.189380501798924 0 0 0
974 325 1 0.5897 1.6805348532222875 3.16259559061014 17.086174018368553 0 0 0
988 330 2 -1.1794 1.584830311827693 0.023885165327405755 16.470119820637088 0 0 0
1488 496 1 0.5897 6.050215490036986 0.4890103730458861 18.743452742250305 0 0 0
386 129 1 0.5897 4.636679693872241 0.23380838120452474 22.57562681764066 0 1 -1
1441 481 2 -1.1794 4.8185391839501985 1.6355497819325941 21.33813611385144 0 0 0
1460 487 1 0.5897 4.602847795067377 2.6717132466936215 17.200473724780217 0 0 0
1447 483 2 -1.1794 5.977087643830483 4.678843713256432 20.55578495604788 0 0 0
1456 486 2 -1.1794 0.2777666859694852 1.5896545895999263 19.43098137733692 0 0 0
1468 490 2 -1.1794 1.7094358297219758 0.36551516493259234 22.06840494961758 0 0 0
1590 530 1 0.5897 2.0927858523523573 6.082936038115764 21.775147012120172 0 0 0
1464 488 1 0.5897 0.9987474695562035 4.457630017161304 19.23186912263867 0 0 0
1444 482 2 -1.1794 3.0516594472253638 0.9264059800530882 19.160348813060196 0 0 0
1466 489 1 0.5897 4.313004221429161 4.9253085111704715 17.868007367695874 0 0 0
1538 513 1 0.5897 0.16330674684851057 4.021649120278904 21.13832894369103 1 0 0
1453 485 2 -1.1794 1.574603631697294 3.020973963233973 22.428653840172387 0 0 0
1445 482 1 0.5897 2.173439523181331 1.1003709156899817 19.498683994842878 0 0 0
1451 484 1 0.5897 4.261504957359234 4.419082649215164 20.576494785039408 0 0 0
1459 487 2 -1.1794 4.436852191696557 3.0726477490926847 18.053630518850476 0 0 0
1443 481 1 0.5897 4.797073655786932 2.207709083560172 22.10516670430561 0 0 0
1442 481 1 0.5897 3.9309088129814374 1.6773140848759291 20.982670891016625 0 0 0
1463 488 1 0.5897 1.6702867617981132 4.988526227005335 17.983336927856136 0 0 0
1462 488 2 -1.1794 1.7034017746789365 4.267996358320766 18.61255010558218 0 0 0
1452 484 1 0.5897 2.937390524540021 4.426697841151899 19.843006492071375 0 0 0
1450 484 2 -1.1794 3.3163613073205345 4.460330286773445 20.72129095930351 0 0 0
1446 482 1 0.5897 3.203699124428431 1.6206587707293711 18.519214631578777 0 0 0
1461 487 1 0.5897 5.104737684328424 2.6990225037813462 18.62844123832548 0 0 0
1454 485 1 0.5897 2.260846313257642 3.516492136985586 21.9818954997817 0 0 0
1469 490 1 0.5897 1.7708209656758593 1.3094726493215376 22.214466652073263 0 0 0
1487 496 1 0.5897 6.005258374811935 1.2858468029052204 20.02981930252092 0 0 0
1465 489 2 -1.1794 4.351387874187301 5.800596091404646 17.482572447488955 0 0 0
1449 483 1 0.5897 6.11005285994899 3.982798147665891 21.19920878148845 0 0 0
1826 609 1 0.5897 4.303440110972783 -0.12654568147635814 18.416342696604858 0 1 0
121 41 2 -1.1794 4.682255635617686 7.352465917497063 3.884367189673473 0 0 0
122 41 1 0.5897 3.9184216409825523 7.545707424287295 3.3409958612034636 0 0 0
124 42 2 -1.1794 2.870732762548597 7.773976434541723 1.9499373631632326 0 0 0
126 42 1 0.5897 3.391368267855346 8.39875149263435 1.4452549669920445 0 0 0
130 44 2 -1.1794 3.4824324860232228 10.83690621038676 3.462666637811414 0 0 0
133 45 2 -1.1794 1.239577619099413 9.331079008227311 4.717024767744455 0 0 0
137 46 1 0.5897 1.0322956675997457 8.00795351406761 1.8885531836882865 0 0 0
142 48 2 -1.1794 1.366671646756951 10.750454807805317 1.1170435943542918 0 0 0
143 48 1 0.5897 2.2837378191763293 10.659530976134747 1.3753107859446316 0 0 0
149 50 1 0.5897 1.5167013499517816 7.445663050884006 4.7673805662285815 0 0 0
139 47 2 -1.1794 4.569120233108356 9.47384878633254 0.3967970460405556 0 0 0
123 41 1 0.5897 5.431886247925484 7.5351668609895075 3.3180569266343056 0 0 0
131 44 1 0.5897 2.9584382282290393 10.066622095045158 3.6821918555789748 0 0 0
144 48 1 0.5897 1.384674010818168 11.357998400870907 0.37763331145593293 0 0 0
129 43 1 0.5897 5.180816656288685 10.637321291359736 3.4334641516365627 0 0 0
135 45 1 0.5897 0.6696987623714922 9.891240903307645 4.190193647464038 0 0 0
125 42 1 0.5897 3.219497438868627 6.917165409781194 1.7042438991670164 0 0 0
132 44 1 0.5897 2.978326567320249 11.575407412846717 3.8041201526200474 0 0 0
140 47 1 0.5897 4.424609427957522 10.357853761488402 0.05945324676508515 0 0 0
127 43 2 -1.1794 6.130554375238293 10.533291651030753 3.37745430252261 0 0 0
148 50 2 -1.1794 1.7493318410324568 6.523206864380019 4.872737346153324 0 0 0
145 49 2 -1.1794 4.5823585169390455 12.301548013924837 0.40489596607962103 0 0 0
134 45 1 0.5897 1.1810774116209277 9.693047930687252 5.601174324211042 0 0 0
621 207 1 0.5897 5.188255965464241 8.924007173640849 5.370582544787906 0 0 0
136 46 2 -1.1794 0.0753967506461876 8.020017423183255 1.9015695093880636 0 0 0
218 73 1 0.5897 -0.0229044361981824 11.434066798033646 2.447596415717798 1 0 0
26 9 1 0.5897 5.651984636171453 6.143045178760373 0.8201139669748141 0 0 0
506 169 1 0.5897 4.152078930451783 6.242490828198089 6.764068055362982 0 0 0
627 209 1 0.5897 5.734720323232314 12.294147935733587 6.382769456671509 0 0 0
606 202 1 0.5897 2.2397108106039725 8.019887988827696 7.599288061305615 0 0 0
698 233 1 0.5897 0.43055903636628146 11.855921718984606 9.637237025552446 1 0 0
699 233 1 0.5897 0.2927761767312241 11.001173638863062 8.395408222865285 1 0 0
750 250 1 0.5897 1.8043104591708479 11.969126407710315 11.132481477970227 0 0 0
607 203 2 -1.1794 6.021131034410868 10.841664516099364 9.490313075331454 0 0 0
623 208 1 0.5897 2.2607647630182655 10.75290316111183 7.378544152968672 0 0 0
150 50 1 0.5897 1.6492190033502785 6.3559775749815195 5.809846656827597 0 0 0
619 207 2 -1.1794 5.085795316838812 9.334184598676032 6.229311902652604 0 0 0
613 205 2 -1.1794 1.5783462586202333 9.09622857999659 10.174391504368552 0 0 0
616 206 2 -1.1794 0.25593394025289357 8.010191833397402 7.590180712556312 0 0 0
1101 367 1 0.5897 4.545689426224653 8.85027671091007 10.974371922270707 0 0 0
625 209 2 -1.1794 4.839022402661583 11.99349378428722 6.2300475855150825 0 0 0
630 210 1 0.5897 1.1343352547650893 7.333068462166085 10.345115091698377 0 0 0
648 216 1 0.5897 5.973180908193105 7.024691364114702 7.215264401938264 0 0 0
604 202 2 -1.1794 3.180033038472215 7.847868756557716 7.552668510405633 0 0 0
612 204 1 0.5897 2.9830144508661376 11.52386807262062 9.319767653244423 0 0 0
610 204 2 -1.1794 3.344934756700001 10.813511118053263 8.790111686781344 0 0 0
603 201 1 0.5897 4.253258031050609 7.473811668209213 9.17751523548961 0 0 0
620 207 1 0.5897 5.703569044458262 8.868591200673329 6.792917356051719 0 0 0
626 209 1 0.5897 4.908322260172423 11.039387077122724 6.197838099593478 0 0 0
622 208 2 -1.1794 1.4451594864183628 10.793503424178246 6.879385648702978 0 0 0
615 205 1 0.5897 0.8913014462527127 9.564083315522517 9.699909030050623 0 0 0
601 201 2 -1.1794 4.970090203734534 7.483170551052806 9.811643942279744 0 0 0
614 205 1 0.5897 2.394834086711259 9.413304979349583 9.788615094747795 0 0 0
624 208 1 0.5897 1.6002666774579393 11.470527002559376 6.220799639683507 0 0 0
611 204 1 0.5897 4.2925682988116804 10.892237349004967 8.898528381690392 0 0 0
602 201 1 0.5897 4.86482120888937 6.669682049390248 10.30490687425933 0 0 0
605 202 1 0.5897 3.5323522251870623 8.577117430172732 7.042569814264578 0 0 0
628 210 2 -1.1794 1.186986458854613 6.402101219885573 10.561183705971196 0 0 0
647 216 1 0.5897 6.1504012542490125 7.587256187434244 8.609474943183544 0 0 0
1081 361 2 -1.1794 4.4052076627563475 7.6164581974787255 15.41776117372206 0 0 0
1084 362 2 -1.1794 2.7878226366603314 7.243238501314737 13.03557230173771 0 0 0
1086 362 1 0.5897 3.3887024167532984 7.783018380996721 12.522091519412479 0 0 0
1089 363 1 0.5897 4.972301920810686 10.651641140870044 14.745226634254937 0 0 0
1090 364 2 -1.1794 3.1655870356575955 10.476298913316608 14.900182793980191 0 0 0
1092 364 1 0.5897 2.663612229249791 9.745532011115795 15.260886381734705 0 0 0
1097 366 1 0.5897 0.8739387484124962 7.541714174962481 13.268095364479423 0 0 0
1102 368 2 -1.1794 1.861151990192917 10.618147964750689 12.489352834589567 0 0 0
1104 368 1 0.5897 2.430343601374952 10.295081153321844 13.187738747010979 0 0 0
1091 364 1 0.5897 2.6767796776927066 11.256144316922438 15.162894705493104 0 0 0
1093 365 2 -1.1794 1.3541950553797035 8.828244529706591 16.288825978412703 0 0 0
1094 365 1 0.5897 1.2837810960923361 7.880120871394519 16.39955964110898 0 0 0
1100 367 1 0.5897 5.022121589854253 8.901600083730592 12.410357784753103 0 0 0
1099 367 2 -1.1794 4.437164050772475 9.33774578608586 11.790920364475543 0 0 0
1082 361 1 0.5897 4.3464314225179805 6.8092837496815415 15.928810096995116 0 0 0
1085 362 1 0.5897 3.1038752830392546 7.321964914511108 13.935599990970884 0 0 0
1103 368 1 0.5897 1.8917381800789097 9.935090007899191 11.81953407505807 0 0 0
1083 361 1 0.5897 4.222457396589429 8.313320021240601 16.04795093590802 0 0 0
1095 365 1 0.5897 0.6538741322691068 9.050907484298762 15.675617483310146 0 0 0
1107 369 1 0.5897 4.40152555519304 11.262258411996957 11.666866572282403 0 0 0
1179 393 1 0.5897 0.30263631370040706 10.77470448030119 13.706482731736156 1 0 0
1087 363 2 -1.1794 5.902825757143276 10.789930219099695 14.921212831876343 0 0 0
1105 369 2 -1.1794 4.582724703048112 12.161601125934043 11.939804340559173 0 0 0
1178 393 1 0.5897 0.3673903853585352 11.304311248240989 15.12318746606228 1 0 0
1127 376 1 0.5897 5.824610251754027 7.757120961723264 14.137894157291669 0 0 0
1230 410 1 0.5897 2.257027348435139 12.348363656197265 16.73480928835791 0 0 0
1088 363 1 0.5897 6.1600228337545495 10.039091064755077 15.456219856507783 0 0 0
1588 530 2 -1.1794 1.2888354818681158 6.407509889818247 22.180528219265 0 0 0
1708 570 2 -1.1794 1.3499355354829379 12.259389744779202 21.801925563383328 0 0 0
1575 525 1 0.5897 1.5890380308654852 9.461464740860118 22.828441201435616 0 0 0
1572 524 1 0.5897 4.250949259374635 10.990064178533634 20.39145877766383 0 0 0
1585 529 2 -1.1794 4.143377677238259 12.048031169445416 17.765285544130215 0 0 0
1709 570 1 0.5897 0.6168402935932144 11.733731261028854 21.482076052560693 0 0 0
1566 522 1 0.5897 3.065281574310752 6.495411703955485 18.68799214845798 0 0 0
1565 522 1 0.5897 1.747136212430163 7.170307569149334 19.0015720081866 0 0 0
141 47 1 0.5897 4.6760129363181715 8.93292810665194 22.550786051712812 0 0 -1
1467 489 1 0.5897 4.869869892174767 6.313300553606384 18.102582424162577 0 0 0
1563 521 1 0.5897 3.8603243711428603 7.597829719411432 20.609889558070485 0 0 0
1579 527 2 -1.1794 4.067912801307902 9.350821241231893 17.97533082443241 0 0 0
1589 530 1 0.5897 1.2738283439360376 7.341086209683118 21.96990182964997 0 0 0
1564 522 2 -1.1794 2.6702787149813823 7.158656488097385 19.253853168235167 0 0 0
1573 525 2 -1.1794 1.629541348956936 9.075175329644704 21.953627069798593 0 0 0
1582 528 2 -1.1794 1.3504723166857968 10.802905625828851 18.37812115158507 0 0 0
1570 524 2 -1.1794 3.3134247647645707 10.809004649436668 20.456527144264037 0 0 0
1581 527 1 0.5897 4.852259198241556 8.984348039537572 18.383398431292754 0 0 0
1583 528 1 0.5897 2.0733880237804447 10.684126624239443 18.99401748271392 0 0 0
1574 525 1 0.5897 0.7741764762320182 9.264106361032614 21.568027304833308 0 0 0
1571 524 1 0.5897 3.2611815069151158 9.984953283046627 20.940640711880206 0 0 0
1584 528 1 0.5897 1.4477216843011322 10.085020878521254 17.752549417741008 0 0 0
1587 529 1 0.5897 4.298776413219053 11.118662000054234 17.597135685634782 0 0 0
1562 521 1 0.5897 4.537996490256745 6.928770486003589 21.786635797352062 0 0 0
1580 527 1 0.5897 3.362466692120767 9.153270789308033 18.5912609538969 0 0 0
1561 521 2 -1.1794 4.56955085429576 7.7150941840747915 21.24178590780285 0 0 0
1567 523 2 -1.1794 6.028414800487682 10.923104210733033 20.547374754078923 0 0 0
1608 536 1 0.5897 5.761115597158437 7.4649481316298525 19.76549374558116 0 0 0
1710 570 1 0.5897 2.1145414545409915 11.906567889506 21.347032209602006 0 0 0
1606 536 2 -1.1794 5.954193155494397 7.354212284695957 18.834570418019034 0 0 0
1658 553 1 0.5897 0.16109351257845472 10.48701226610417 19.59063222460346 1 0 0
1586 529 1 0.5897 4.95455916093664 12.35805619033226 18.167631979886494 0 0 0
241 81 2 -1.1794 4.636535151014814 13.652139683697685 4.095165032071174 0 0 0
242 81 1 0.5897 4.623018188771574 12.992626969723094 4.78871867262701 0 0 0
243 81 1 0.5897 3.933736570423578 13.389758671036983 3.5007727303142624 0 0 0
244 82 2 -1.1794 2.8725172290542447 13.794769603958438 1.8424921535837113 0 0 0
245 82 1 0.5897 3.2730094409491035 14.65034502513897 1.6885018244654826 0 0 0
246 82 1 0.5897 1.9621163797450933 13.992071037923617 2.0620847159670066 0 0 0
250 84 2 -1.1794 3.466957185239309 17.2780962902985 3.385437981575388 0 0 0
251 84 1 0.5897 3.323240532522532 17.1016350304724 2.4557241346370566 0 0 0
252 84 1 0.5897 4.382980733914313 17.04471653906348 3.5351643136119097 0 0 0
253 85 2 -1.1794 1.470003706880234 15.508050376931491 4.501523072772058 0 0 0
255 85 1 0.5897 2.263058051488086 15.993917013140754 4.275652099513199 0 0 0
259 87 2 -1.1794 4.70622217476971 15.707394608369723 0.6793118743465292 0 0 0
262 88 2 -1.1794 1.4220188480384865 17.0654564315694 1.1394121485952016 0 0 0
263 88 1 0.5897 1.4374126186918703 16.4059525582063 0.4458895329989587 0 0 0
254 85 1 0.5897 0.7567891879264708 16.02686480330297 4.129766089606303 0 0 0
264 88 1 0.5897 1.259946381242538 17.89064171497622 0.6823025065524075 0 0 0
269 90 1 0.5897 1.6838048807464692 13.660531332274417 4.719941874067247 0 0 0
260 87 1 0.5897 4.819250810462761 16.650460527041957 0.5609825816147644 0 0 0
338 113 1 0.5897 0.3609153164907985 17.389955652255217 2.598093050300331 1 0 0
268 90 2 -1.1794 1.7784220815185614 12.71762462826453 4.585211208375303 0 0 0
339 113 1 0.5897 0.326904195459992 17.988074707697855 3.9883516544792634 1 0 0
288 96 1 0.5897 5.870537119100175 14.501533123605125 1.6190194195034424 0 0 0
265 89 2 -1.1794 4.505978342408673 18.491118863371177 0.6754281092816574 0 0 0
146 49 1 0.5897 5.3540239443476025 12.583935145749699 0.8956263890952043 0 0 0
256 86 2 -1.1794 0.12042317373633088 13.974284543527741 1.9637289195869232 0 0 0
740 247 1 0.5897 4.9904527214180385 15.146566038232647 5.495647417031478 0 0 0
389 130 1 0.5897 2.460282036226864 18.421114752882204 4.646622880819489 0 0 0
147 49 1 0.5897 3.8412971646210017 12.635796099386848 0.9100463710411807 0 0 0
270 90 1 0.5897 0.9996757006920955 12.466839182991853 4.0885235209779225 0 0 0
287 96 1 0.5897 5.895825679078255 13.693008922457711 2.8986151339581956 0 0 0
818 273 1 0.5897 0.45304715480328095 17.23083723683027 8.70596593623791 1 0 0
747 249 1 0.5897 3.855178120440561 18.51988698514871 6.797105123097441 0 0 0
1106 369 1 0.5897 4.431467518829249 12.686095954138816 11.153556527689418 0 0 0
721 241 2 -1.1794 4.674976735499512 14.367024208152383 9.9391928376479 0 0 0
768 256 1 0.5897 5.965414908462735 14.326216958717898 7.389537340334201 0 0 0
870 290 1 0.5897 2.54834395820654 18.409615512000265 10.802017876085621 0 0 0
728 243 1 0.5897 5.324741349357255 17.346243303532987 9.284928179453411 0 0 0
723 241 1 0.5897 5.512930261164544 14.109272225572537 9.555255828805462 0 0 0
730 244 2 -1.1794 3.4260055251975485 17.200468123937164 9.477228823782163 0 0 0
731 244 1 0.5897 3.009745658526977 16.95522055174495 8.650965051227498 0 0 0
745 249 2 -1.1794 4.585167407800649 18.100482316645383 6.341854112616841 0 0 0
736 246 2 -1.1794 0.226345323507334 14.113770441153532 7.762064700670027 0 0 0
743 248 1 0.5897 1.4071541745512541 17.62991070085838 6.428324859502681 0 0 0
726 242 1 0.5897 3.4005378033854914 13.083294468641524 7.559998824160809 0 0 0
732 244 1 0.5897 3.176525326808202 16.506156875189973 10.087013218524246 0 0 0
749 250 1 0.5897 1.7322271070668476 13.423188632652337 10.717500688314376 0 0 0
724 242 2 -1.1794 3.027861975856361 13.952832643668287 7.705398200036218 0 0 0
722 241 1 0.5897 4.037011408195544 14.22529381143968 9.239921143564308 0 0 0
735 245 1 0.5897 0.9325413783411096 15.670601886519927 10.264258107526526 0 0 0
742 248 2 -1.1794 1.3414145989687245 16.944240975398415 7.092925475742891 0 0 0
725 242 1 0.5897 3.520304462034031 14.526275135240807 7.1182299422538104 0 0 0
744 248 1 0.5897 1.2892281546724278 16.129685986241803 6.592994153414591 0 0 0
733 245 2 -1.1794 1.447847053291106 15.074600997923815 10.807713431328999 0 0 0
737 246 1 0.5897 1.1648736864137714 14.102011278612833 7.949124864031713 0 0 0
739 247 2 -1.1794 4.915020779213118 15.446457227747239 6.401481691219536 0 0 0
741 247 1 0.5897 5.129368296753603 16.378569361613238 6.364308489766803 0 0 0
869 290 1 0.5897 1.0537214663091028 18.184462356454375 10.720466037987965 0 0 0
817 273 2 -1.1794 0.0741616983939744 17.059642714128188 9.568095700768717 1 0 0
746 249 1 0.5897 5.367053219569514 18.495408309020704 6.727490579888624 0 0 0
748 250 2 -1.1794 1.9411458054566035 12.550484670941982 10.384509013211694 0 0 0
1201 401 2 -1.1794 4.457727502392813 13.721589747576306 15.410415100128535 0 0 0
1203 401 1 0.5897 4.281018588672376 12.978084695572498 15.986715249701161 0 0 0
1204 402 2 -1.1794 2.8737736707178967 13.80786020335864 13.310476745869954 0 0 0
1205 402 1 0.5897 3.3862927616741065 13.808267208838469 14.11882315641589 0 0 0
1206 402 1 0.5897 3.3231153663703545 13.182825251056359 12.741673290258433 0 0 0
1210 404 2 -1.1794 3.336134091567877 17.06874800769762 15.207283314562066 0 0 0
1212 404 1 0.5897 4.242991474355743 17.374586188591003 15.200221118115183 0 0 0
1213 405 2 -1.1794 1.512401026163125 15.143216289833793 16.313081692247607 0 0 0
1215 405 1 0.5897 2.374931587993994 15.51008432045195 16.119539782831204 0 0 0
1218 406 1 0.5897 0.9242109469495877 13.934963637059647 13.489716734260721 0 0 0
1222 408 2 -1.1794 1.7895614133777304 16.663123622939466 13.082201250937318 0 0 0
1224 408 1 0.5897 2.39101685614217 16.924322299791342 13.779418685816491 0 0 0
1229 410 1 0.5897 1.768488751833551 13.521928235566683 15.912784070950506 0 0 0
1202 401 1 0.5897 5.247521286138591 13.471347361592686 14.931222109345734 0 0 0
1211 404 1 0.5897 2.85898946454002 17.743961945591842 15.68951128827127 0 0 0
1223 408 1 0.5897 1.856870254733857 17.36281986831699 12.432539146139716 0 0 0
1214 405 1 0.5897 0.9008676025794389 15.702552154753562 15.834276721722567 0 0 0
1219 407 2 -1.1794 4.418004130651305 15.792101178667608 12.27821456778437 0 0 0
1227 409 1 0.5897 4.800016626918819 17.58768540314749 12.145712352215773 0 0 0
1220 407 1 0.5897 3.6050479549136365 15.437425838846453 12.63782793857576 0 0 0
1298 433 1 0.5897 0.3555257513825512 16.949436125923185 14.207529550335375 1 0 0
1216 406 2 -1.1794 -0.017779525582069813 14.097962263867446 13.534982996171026 0 0 0
1248 416 1 0.5897 5.9202989864388265 13.122034896906225 12.732930183543475 0 0 0
1225 409 2 -1.1794 4.841149157221098 18.495222619194116 11.844321182932054 0 0 0
1247 416 1 0.5897 5.763584136820184 14.60157203256481 13.012391507568287 0 0 0
1700 567 1 0.5897 4.6462356531180085 15.152911024567214 16.766614705468662 0 0 0
1221 407 1 0.5897 4.520062315253563 15.350806403895014 11.435006515045703 0 0 0
1228 410 2 -1.1794 1.8845546803462987 12.572332920940518 15.882029496818223 0 0 0
1207 403 2 -1.1794 6.071165060907877 17.253617652255016 14.989647525854396 0 0 0
1350 450 1 0.5897 0.7379085483122771 18.42449215264606 16.29117562176414 0 0 0
734 245 1 0.5897 1.4163476482195323 15.460248988704752 11.683181589152642 0 0 0
261 87 1 0.5897 4.641193521352575 15.360018605511938 22.72616305742966 0 0 -1
1779 593 1 0.5897 0.2672448004465015 17.699858882045056 20.952239774328547 1 0 0
1726 576 2 -1.1794 6.075148211223549 13.514868534017175 18.888598198035325 0 0 0
1778 593 1 0.5897 0.5436693476570449 16.81044711871955 19.758828402558322 1 0 0
1687 563 2 -1.1794 6.130643720308053 17.347404495001847 20.90203978043776 0 0 0
1690 564 2 -1.1794 3.395246948213573 16.943785939770898 20.86356092105823 0 0 0
1693 565 2 -1.1794 1.3929962915667655 15.32794060682346 22.02679210626072 0 0 0
1704 568 1 0.5897 1.6126222996254496 17.736890113317983 17.99985874369297 0 0 0
1685 562 1 0.5897 3.4069618375295594 13.354966504248308 18.7684752302971 0 0 0
1683 561 1 0.5897 4.325202926958428 13.450788911347571 21.95452901822093 0 0 0
1701 567 1 0.5897 4.187278340522272 15.029095117459676 18.20387047066331 0 0 0
1686 562 1 0.5897 3.5988595558656753 14.27871694229081 19.95234930224104 0 0 0
1689 563 1 0.5897 5.193299959591506 17.474100065468143 20.75609016430939 0 0 0
1702 568 2 -1.1794 1.8189887255766537 16.97725820509023 18.54439608230809 0 0 0
1684 562 2 -1.1794 3.0620592935334634 14.152402382107066 19.170054849870645 0 0 0
1691 564 1 0.5897 3.0705003833871394 16.214294621374286 21.391311353024136 0 0 0
1697 566 1 0.5897 1.298847403429776 14.004666375002358 19.116725642841686 0 0 0
1692 564 1 0.5897 2.877703068771686 16.907224771318056 20.059251000710923 0 0 0
1681 561 2 -1.1794 4.602244655469083 14.183317304126541 21.40426684241882 0 0 0
1682 561 1 0.5897 5.429086303762724 13.894320935860128 21.018493174039108 0 0 0
1699 567 2 -1.1794 4.759015346943176 15.542767754428379 17.633480810076932 0 0 0
1694 565 1 0.5897 0.8043128393289672 15.931285552775252 21.573465245631304 0 0 0
1707 569 1 0.5897 4.576431446089414 17.413118541367176 17.818455246334373 0 0 0
1695 565 1 0.5897 1.2519662106434644 14.48533012600323 21.595201518128953 0 0 0
1703 568 1 0.5897 1.7187301275861142 16.227356937710184 17.958095495079185 0 0 0
1696 566 2 -1.1794 0.360998303805975 13.819602286909285 19.16318997144142 0 0 0
1705 569 2 -1.1794 4.7228674002940725 18.344577729562232 17.983059314722276 0 0 0
1728 576 1 0.5897 5.7148590200239315 14.21926870404023 18.34994147843915 0 0 0
361 121 2 -1.1794 4.895793748288969 19.985478144155117 4.243117910555642 0 0 0
362 121 1 0.5897 4.141498839265558 19.961654790085603 3.6544717767641743 0 0 0
364 122 2 -1.1794 2.940205376424974 20.38820512509001 2.2108198387158224 0 0 0
366 122 1 0.5897 3.2834101978268735 21.19459720630249 1.8260179643020802 0 0 0
370 124 2 -1.1794 3.369341873107993 23.1184917979923 3.256633416787388 0 0 0
371 124 1 0.5897 4.3081599830827075 23.271949644251016 3.3616971246904632 0 0 0
372 124 1 0.5897 3.138943186944503 22.536055116933007 3.980410030905328 0 0 0
373 125 2 -1.1794 1.620304250072184 21.427789047800147 4.8255423809199485 0 0 0
375 125 1 0.5897 1.0414857482939655 21.863706898075584 4.200211993445771 0 0 0
382 128 2 -1.1794 1.617800619931978 23.083852794300128 1.1626986956777874 0 0 0
383 128 1 0.5897 2.4648996036579445 23.23498967409833 1.5817373204438743 0 0 0
365 122 1 0.5897 2.001245890185708 20.415642285258784 2.027600082805877 0 0 0
363 121 1 0.5897 4.905932976418792 19.12167293067386 4.655295142147005 0 0 0
390 130 1 0.5897 1.7300548908637998 19.69595270737723 5.011499962241343 0 0 0
381 127 1 0.5897 5.235747443647333 21.52708375313714 1.2208855610860478 0 0 0
384 128 1 0.5897 1.812390096866176 22.495362655742454 0.4333383944383493 0 0 0
379 127 2 -1.1794 4.634868656093241 21.851052005768693 0.5500156173589373 0 0 0
380 127 1 0.5897 4.875398158201105 22.77046696958667 0.4361404603016977 0 0 0
267 89 1 0.5897 3.8647105017887444 18.938058773983627 1.227775179115169 0 0 0
385 129 2 -1.1794 4.7770884545755905 24.634648185000238 0.37998610287482215 0 0 0