LAMMPS data file via write_data, version 30 Jul 2021, timestep = 41250000

864 atoms
2 atom types
576 bonds
1 bond types
288 angles
1 angle types

0.13541744233590514 18.07215495766151 xlo xhi
0.17807503274373104 23.45110276726348 ylo yhi
0.1781422653512088 22.035053534644558 zlo zhi

Masses

1 1.00794
2 15.9994

Atoms # full

707 1 1 0.5897 3.0083259241753 1.9665570931670011 3.928066837271698 0 0 0
706 1 2 -1.1794 3.033816348996369 1.952845528676356 2.9713470981657575 0 0 0
30 1 1 0.5897 5.37216759876485 4.060440755361527 2.3401023261696934 0 0 0
708 1 1 0.5897 2.2171683247893026 2.3741460870951707 2.7034668249147487 0 0 0
29 1 1 0.5897 4.558751780621366 2.7920899838656417 2.487979197302346 0 0 0
28 1 2 -1.1794 5.369518409493424 3.1314385554690807 2.108980296004547 0 0 0
495 1 1 0.5897 8.335107638525512 2.136247374474964 2.7350127929180483 0 0 0
1 1 2 -1.1794 0.7554489097180626 3.185385034039711 2.0928169231914655 0 0 0
494 1 1 0.5897 6.83185128970362 2.314398169230967 2.733288605519873 0 0 0
493 1 2 -1.1794 7.526601020517145 1.7484137907000508 3.069760666470756 0 0 0
846 1 1 0.5897 7.4751265469818495 1.8384056063754357 4.833524164217187 0 0 0
3 1 1 0.5897 0.7134349963324843 4.102105340455951 2.3654301844129897 0 0 0
136 1 2 -1.1794 5.25594482306759 5.757153123749563 2.8578841276034974 0 0 0
595 1 2 -1.1794 0.7381661454359899 5.82164862730403 3.000037480463976 0 0 0
597 1 1 0.5897 0.7443715479393166 5.818352561907008 3.9571693287567107 0 0 0
137 1 1 0.5897 5.224208079955397 5.758211024360678 3.8145157150107445 0 0 0
20 1 1 0.5897 0.8009266328407795 3.065008255167965 0.31761108762533335 0 0 0
188 1 1 0.5897 3.0621979781787885 0.2593073855834615 2.515759710868847 0 1 0
668 1 1 0.5897 5.303854626356271 3.1040504000342004 0.27786533003687375 0 0 0
35 1 1 0.5897 0.7081504778148955 4.163892417517957 9.739299828998393 0 0 0
685 1 2 -1.1794 5.317443332268181 5.873651095088688 5.672903075890531 0 0 0
183 1 1 0.5897 0.8026015513036296 4.885739454160529 5.988354612103362 0 0 0
487 1 2 -1.1794 3.051182981268664 1.9454557637990246 5.735085396937817 0 0 0
355 1 2 -1.1794 7.4494142906932925 1.930673811666714 10.370668117537358 0 0 0
34 1 2 -1.1794 0.7130703098800356 3.2692593378676102 9.398635131699294 0 0 0
845 1 1 0.5897 7.456143531547037 1.056616270898863 6.129817046948308 0 0 0
489 1 1 0.5897 2.9625726190333483 1.0458719964205803 6.050280988013425 0 0 0
419 1 1 0.5897 8.92555452350249 2.8330487018519213 6.3648489885207375 0 0 0
678 1 1 0.5897 5.153013870222276 4.841998044133789 10.116542490697553 0 0 0
84 1 1 0.5897 6.015453635754036 2.8554622708603326 6.421921430003147 0 0 0
181 1 2 -1.1794 0.870863589290187 5.797532426103556 5.70474535869592 0 0 0
176 1 1 0.5897 8.93703899273288 2.8114357402051597 9.733270010500897 0 0 0
785 1 1 0.5897 0.7242799872980615 3.268765451339486 7.538311388260189 0 0 0
844 1 2 -1.1794 7.459841624136403 1.9493226233106364 5.78411387356336 0 0 0
488 1 1 0.5897 2.2396893308821233 2.375413311164267 6.004864325325772 0 0 0
674 1 1 0.5897 3.7707146056955727 2.3202853140452535 10.13593434414028 0 0 0
275 1 1 0.5897 5.265345835419383 3.254050604960358 8.572403626692987 0 0 0
675 1 1 0.5897 2.9162138153485127 1.0818574550157676 9.96763324369904 0 0 0
676 1 2 -1.1794 5.099351708270815 5.750890019544797 10.41234194060613 0 0 0
784 1 2 -1.1794 0.7808245272411596 3.2238039770913898 6.583883295452021 0 0 0
274 1 2 -1.1794 5.212967976314259 3.177503383395225 9.525057836713097 0 0 0
356 1 1 0.5897 7.395948257067724 1.009486490281719 10.115678274478624 0 0 0
686 1 1 0.5897 5.294233167792815 4.9936011145112325 6.048946466669359 0 0 0
673 1 2 -1.1794 2.9211898994763446 1.948822954970641 10.373559553543942 0 0 0
36 1 1 0.5897 1.5303276246306563 2.8926413602096113 9.724856385096434 0 0 0
82 1 2 -1.1794 5.233222220725353 3.2933303909299663 6.757417614650624 0 0 0
112 1 2 -1.1794 0.6989881342084329 5.803990274993257 10.368294986415831 0 0 0
83 1 1 0.5897 4.503182684502342 2.8028500488530637 6.37970052484291 0 0 0
276 1 1 0.5897 6.032143869378676 2.751294921464289 9.776978682865876 0 0 0
166 1 2 -1.1794 3.095252196756913 1.9583052384581574 13.057263833053826 0 0 0
167 1 1 0.5897 3.023565694699082 1.877678652802527 12.106205262840337 0 0 0
457 1 2 -1.1794 5.222807735236815 3.3129414049831314 14.075549004154402 0 0 0
458 1 1 0.5897 5.987536047192311 2.853844254333408 13.728271338760486 0 0 0
459 1 1 0.5897 4.474024498244368 2.849385425845316 13.700551630490672 0 0 0
762 1 1 0.5897 5.190052007246545 5.016346403332398 13.456364136486183 0 0 0
594 1 1 0.5897 8.270795581046086 2.4552708208374328 13.468183045254385 0 0 0
168 1 1 0.5897 2.3204555425942006 2.4578373188082994 13.314851707074473 0 0 0
71 1 1 0.5897 5.330583401645088 3.293091684001005 15.8586687948929 0 0 0
592 1 2 -1.1794 7.490779909237007 2.0226899787348307 13.120880839339092 0 0 0
466 1 2 -1.1794 0.9388888633305688 3.414428982354539 13.92978246758895 0 0 0
593 1 1 0.5897 7.546854880085398 1.1256489325434198 13.450460940552757 0 0 0
468 1 1 0.5897 0.9521965885779443 3.441179643501298 14.886475840971677 0 0 0
365 1 1 0.5897 0.7407068535014539 5.070913525386025 13.43547862297536 0 0 0
357 1 1 0.5897 7.443960170087307 1.9154227293541766 11.3276904733891 0 0 0
113 1 1 0.5897 0.7279662991774029 5.889195407770169 11.321216737582787 0 0 0
760 1 2 -1.1794 5.247774986876996 5.911455412133072 13.121856231834798 0 0 0
761 1 1 0.5897 5.14214363165933 5.820947823620654 12.17485931743988 0 0 0
467 1 1 0.5897 0.14594702341634047 2.9234410629623473 13.714439927678898 0 0 0
364 1 2 -1.1794 0.6839972586692005 5.962261625391755 13.090903224892973 0 0 0
737 1 1 0.5897 2.864247366211667 0.26855829574984114 13.721043869820228 0 1 0
360 1 1 0.5897 9.06253310692025 2.713738108471721 20.893746869777985 0 0 0
144 1 1 0.5897 5.210809281899921 5.817156256735017 19.502775233094805 0 0 0
133 1 2 -1.1794 0.7822358023361373 3.283475449265235 16.646644750685024 0 0 0
599 1 1 0.5897 9.042268736570938 2.763867933257217 16.979363440388717 0 0 0
72 1 1 0.5897 4.530428100651288 2.8330585821222396 17.0586016600335 0 0 0
756 1 1 0.5897 6.785175320957262 2.4411814411596287 17.361302585041305 0 0 0
646 1 2 -1.1794 0.48448144387399555 5.6579741846049085 20.513613962251128 0 0 0
570 1 1 0.5897 3.0857914227074166 1.9046001237090784 19.346776189641137 0 0 0
70 1 2 -1.1794 5.325288812886328 3.307795878335079 16.815698965647147 0 0 0
278 1 1 0.5897 5.2179739270352625 4.986929666864087 17.31763912170251 0 0 0
134 1 1 0.5897 0.6903893425935701 4.108727460913161 17.123008457446833 0 0 0
569 1 1 0.5897 2.318494739141558 2.324082341742896 20.58249701819103 0 0 0
568 1 2 -1.1794 3.0970747745385148 1.8431823709471988 20.301897700751518 0 0 0
40 1 2 -1.1794 7.614162295635501 1.8817158175025874 20.320985572639387 0 0 0
42 1 1 0.5897 7.51546625647403 1.021738523596898 20.7297878636526 0 0 0
290 1 1 0.5897 2.9791749076977436 1.0769823844956687 17.245005979612845 0 0 0
669 1 1 0.5897 4.537816997408168 2.793260974662784 20.86659671139355 0 0 0
142 1 2 -1.1794 5.174884683269415 5.821906722955858 20.459250343006303 0 0 0
21 1 1 0.5897 0.708406436120449 3.9807170402929533 20.972472525689557 0 0 0
291 1 1 0.5897 2.3619407801922514 2.45761386281761 17.17252679431885 0 0 0
571 1 2 -1.1794 0.6902926944885749 5.732913698993981 17.795767289574048 0 0 0
754 1 2 -1.1794 7.571199770262227 1.938599062879466 17.57524466746102 0 0 0
648 1 1 0.5897 0.5916959398889646 5.622670467213372 19.56313601604926 0 0 0
277 1 2 -1.1794 5.23419288272786 5.862060289546611 17.705344593018978 0 0 0
19 1 2 -1.1794 0.8110477728760238 3.0609751606592277 21.217426680957402 0 0 0
667 1 2 -1.1794 5.340574226425906 3.2068824740375708 21.18386410325627 0 0 0
143 1 1 0.5897 5.210527613315221 4.897438929412059 20.70532784381915 0 0 0
755 1 1 0.5897 7.53497564557588 1.8293706134296663 18.52546259044473 0 0 0
41 1 1 0.5897 6.852274354054302 2.3783360206966586 20.619479071955723 0 0 0
289 1 2 -1.1794 3.0917302422407724 1.9740998356913686 17.55958811104891 0 0 0
81 1 1 0.5897 3.0869398170287963 0.19106558908524462 20.978974783276673 0 1 0
323 1 1 0.5897 7.223266215609089 0.20975454820206352 17.046428602496448 0 1 0
123 1 1 0.5897 3.030894662595066 8.846589545662384 2.8383169550961203 0 0 0
121 1 2 -1.1794 3.0877289067489717 9.76501061432656 3.102393252975606 0 0 0
122 1 1 0.5897 3.0023622336843667 9.746317067731681 4.055553092583818 0 0 0
44 1 1 0.5897 1.5217613882622192 10.519070415801904 2.5931029042757903 0 0 0
218 1 1 0.5897 6.093872985459626 10.56130226970407 2.4754544364201103 0 0 0
417 1 1 0.5897 8.287752924862138 6.64367420441794 2.285841188760372 0 0 0
219 1 1 0.5897 4.580804040867007 10.590730238767254 2.510974442750484 0 0 0
254 1 1 0.5897 2.931736622685261 7.07895796207082 1.2589999565823102 0 0 0
415 1 2 -1.1794 7.522125561245648 7.167185734920335 2.0492756174511397 0 0 0
217 1 2 -1.1794 5.338747897359131 11.05536898980029 2.1562701364396055 0 0 0
66 1 1 0.5897 7.513229775482406 9.769460451454346 3.9641049269391377 0 0 0
65 1 1 0.5897 7.648125683007802 8.85356028788184 2.766216623389868 0 0 0
64 1 2 -1.1794 7.63417606717051 9.777978531180594 3.014656141157237 0 0 0
253 1 2 -1.1794 2.970467179351949 7.155425531747443 2.212315571192036 0 0 0
255 1 1 0.5897 2.168740618707359 6.732479054990826 2.5197473712091063 0 0 0
416 1 1 0.5897 6.777638788250318 6.669833904831631 2.3877668874630946 0 0 0
43 1 2 -1.1794 0.6809954031874357 10.867518091842124 2.2967324229718 0 0 0
396 1 1 0.5897 0.7385468141224374 10.864978461233518 0.47656849787612016 0 0 0
162 1 1 0.5897 7.4762964391637015 7.188650468377836 0.32914834791001657 0 0 1
138 1 1 0.5897 4.444564927256682 6.188748510168976 2.5903817578837636 0 0 0
773 1 1 0.5897 9.08038629201852 10.661530277131876 2.4255116120656743 0 0 0
363 1 1 0.5897 5.267636911336701 10.92869299346638 0.4086929236243796 0 0 1
45 1 1 0.5897 0.6838510309549415 11.780055448682457 2.5860916303985295 0 0 0
12 1 1 0.5897 3.037534814567965 7.9118877968238515 6.424773772391121 0 0 0
712 1 2 -1.1794 7.231057972809636 9.767587890775387 5.773463972538791 0 0 0
145 1 2 -1.1794 7.505196681989147 7.137137261595122 6.614050068227182 0 0 0
793 1 2 -1.1794 2.923197832834267 9.541997069627522 5.809245866214768 0 0 0
714 1 1 0.5897 7.257092540696088 8.848695146014276 6.040708375794934 0 0 0
15 1 1 0.5897 1.4035939476364756 10.497206140069938 9.738758982724818 0 0 0
526 1 2 -1.1794 7.327291115143298 7.006128753448181 9.363663417433443 0 0 0
820 1 2 -1.1794 7.3897524063703415 9.666548137187322 10.225429547597649 0 0 0
550 1 2 -1.1794 0.6836807574685325 10.909364815445688 6.679683245684216 0 0 0
258 1 1 0.5897 3.7024457411008793 10.177790859907857 10.026305205874905 0 0 0
11 1 1 0.5897 2.2983237131213694 6.5916267492767915 6.372200295210053 0 0 0
551 1 1 0.5897 0.7542401957526657 10.958961887640207 7.632949024918305 0 0 0
580 1 2 -1.1794 5.174072576464676 11.151830548981705 9.572725472673595 0 0 0
114 1 1 0.5897 1.4595283663651515 6.296710890789724 10.060080060330169 0 0 0
578 1 1 0.5897 5.833477965101647 10.631009878394096 6.493351987445302 0 0 0
822 1 1 0.5897 8.14715932402747 10.176688230173447 9.938566875419413 0 0 0
677 1 1 0.5897 5.872169513709065 6.171896499007553 10.035939219221385 0 0 0
527 1 1 0.5897 7.350887694850217 7.896865849164199 9.713624709347206 0 0 0
257 1 1 0.5897 3.002152626798472 8.836853763534473 9.964756335542067 0 0 0
651 1 1 0.5897 3.6497620456557907 6.603141489243031 9.818342082084788 0 0 0
650 1 1 0.5897 2.9784403171160085 7.029028209715165 8.530057166072893 0 0 0
713 1 1 0.5897 8.038820720019569 10.142598697826097 6.12423158482468 0 0 0
165 1 1 0.5897 8.915438812332535 6.305218638532034 5.949479522236227 0 0 0
577 1 2 -1.1794 5.029852905488286 11.028431806950097 6.8286189161725455 0 0 0
147 1 1 0.5897 7.433621282777433 7.102326798668525 7.567892456737725 0 0 0
582 1 1 0.5897 5.1482498353289365 11.12984015991974 8.616166576835415 0 0 0
146 1 1 0.5897 6.69956448583152 6.728299612010469 6.297866510715184 0 0 0
794 1 1 0.5897 2.1435813896350218 10.003953854798638 6.1174288178780785 0 0 0
581 1 1 0.5897 5.96500006488521 10.664255406408033 9.802703015613702 0 0 0
528 1 1 0.5897 8.10641339688384 6.584886633196803 9.726553209623543 0 0 0
256 1 2 -1.1794 2.8920674834725544 9.734824998095513 10.27777327815464 0 0 0
13 1 2 -1.1794 0.6405093075868554 10.995982927111376 9.447008988473447 0 0 0
649 1 2 -1.1794 2.909529953087544 7.10789672717532 9.481468427585778 0 0 0
687 1 1 0.5897 4.50337202720979 6.282060251353604 5.967268567787928 0 0 0
10 1 2 -1.1794 3.079965277594157 7.0075167136216905 6.735842534508419 0 0 0
795 1 1 0.5897 3.6557260591412386 10.033081139439789 6.181313366033971 0 0 0
828 1 1 0.5897 7.586510787908681 7.001324642601983 14.882323244558734 0 0 0
261 1 1 0.5897 0.7414671581782988 10.90428201009455 14.896918099430405 0 0 0
332 1 1 0.5897 2.972312092930808 8.003575829427515 13.812637909969068 0 0 0
797 1 1 0.5897 2.9196168328120438 9.58540515471575 12.040795309076387 0 0 0
796 1 2 -1.1794 2.9824496698945726 9.58882651585979 12.995882058277553 0 0 0
798 1 1 0.5897 2.2099156003620597 10.074131808720914 13.285467626498628 0 0 0
722 1 1 0.5897 4.5631129322952075 10.484650598637119 13.535378009870486 0 0 0
259 1 2 -1.1794 0.779248348610024 10.98568174943574 13.943975619884672 0 0 0
721 1 2 -1.1794 5.374902730553038 10.883769705645516 13.848205314272086 0 0 0
723 1 1 0.5897 5.31795010227393 10.827519779336871 14.802010095561753 0 0 0
331 1 2 -1.1794 2.9678758730962036 7.125658942028299 14.194317104486872 0 0 0
225 1 1 0.5897 2.840085487131005 7.112866513837259 15.961006872099114 0 0 0
826 1 2 -1.1794 7.598792204901189 7.017515978374573 13.925378651570252 0 0 0
475 1 2 -1.1794 7.63872323324614 9.633906935164916 12.940215492578494 0 0 0
476 1 1 0.5897 6.8405274351887435 10.027446163579905 13.292594217441073 0 0 0
477 1 1 0.5897 7.6597147052412575 8.754439799842855 13.317750615689647 0 0 0
827 1 1 0.5897 6.752805158836881 6.6509751059604465 13.668287742752995 0 0 0
333 1 1 0.5897 3.7529790883089635 6.706670369290919 13.841860482786396 0 0 0
366 1 1 0.5897 1.4672334308916812 6.399203321967754 13.425257525998315 0 0 0
821 1 1 0.5897 7.453594184250096 9.658504616422698 11.180421820149789 0 0 0
851 1 1 0.5897 9.062928066288576 6.176384146392464 13.332160341020717 0 0 0
104 1 1 0.5897 9.061275286184403 10.464210356779455 13.621889815205785 0 0 0
679 1 2 -1.1794 5.309273772382852 10.836612323730117 16.533261019269183 0 0 0
522 1 1 0.5897 7.565637823707201 7.915792405008812 17.043563213049683 0 0 0
8 1 1 0.5897 7.549675785229983 9.713622638382166 18.496759715403662 0 0 0
627 1 1 0.5897 2.2628784187601614 10.024640016649762 17.469520627782142 0 0 0
572 1 1 0.5897 1.4623800874162316 6.2360621460415295 17.537080457824242 0 0 0
287 1 1 0.5897 9.056183968555407 10.585253108120693 21.01397415026735 0 0 0
246 1 1 0.5897 9.06561236465304 10.488993796156873 16.993319104125078 0 0 0
361 1 2 -1.1794 5.254131432059548 10.80496153901154 21.316570017550784 0 0 0
711 1 1 0.5897 8.9304413610737 6.157900850877235 17.445238494668494 0 0 0
521 1 1 0.5897 6.758953692252634 6.637708417634232 17.133014004098623 0 0 0
140 1 1 0.5897 6.738178312694778 10.195928650709467 20.679617308053707 0 0 0
224 1 1 0.5897 2.98277356190636 7.944368503424137 17.218067824068182 0 0 0
680 1 1 0.5897 4.545263479088824 10.431107087480477 16.943170403961243 0 0 0
690 1 1 0.5897 2.2745150601521016 10.05229427186507 20.8534055910712 0 0 0
394 1 2 -1.1794 0.8438513547784409 10.893771802102343 21.382566671681573 0 0 0
520 1 2 -1.1794 7.549556718787889 7.00786356056058 16.74047914943814 0 0 0
139 1 2 -1.1794 7.543276868533378 9.794807284589854 20.352395574661053 0 0 0
279 1 1 0.5897 4.436533230633533 6.282022535825465 17.38356927771041 0 0 0
625 1 2 -1.1794 3.0832653055947166 9.621279977389175 17.753107688396515 0 0 0
7 1 2 -1.1794 7.602480150289724 9.645725744867342 17.5434732533127 0 0 0
688 1 2 -1.1794 3.0160509091799006 9.575055858075425 20.48117124325209 0 0 0
462 1 1 0.5897 8.91798580345146 6.240868694850562 20.81417759826415 0 0 0
689 1 1 0.5897 3.787784512842829 10.021155795296515 20.82987931182983 0 0 0
6 1 1 0.5897 2.832313341244692 7.92235376262129 21.04154316178872 0 0 0
4 1 2 -1.1794 2.771674397108248 7.007196520256729 21.31590195825788 0 0 0
9 1 1 0.5897 6.801574093660615 10.064533368211345 17.228335762161777 0 0 0
160 1 2 -1.1794 7.468571951289503 7.19662268122537 21.228966482945307 0 0 0
647 1 1 0.5897 1.2501940860425285 6.141419633266322 20.82370732936443 0 0 0
626 1 1 0.5897 3.0567402382119866 9.669709363188513 18.708671802193123 0 0 0
161 1 1 0.5897 6.638690762020391 6.782605583447988 20.992224390066756 0 0 0
141 1 1 0.5897 7.503810836462544 8.889875141636995 20.662223990913034 0 0 0
5 1 1 0.5897 3.5727959505547773 6.603065301747933 20.98267005183794 0 0 0
445 1 2 -1.1794 0.7979880773915531 10.765994753186432 16.716380900508497 0 0 0
223 1 2 -1.1794 2.896120194200301 7.040836130040692 16.913805546015286 0 0 0
362 1 1 0.5897 5.307749978572852 11.691077538844938 20.958289557538578 0 0 0
446 1 1 0.5897 0.8176399800005006 11.68448443458276 16.985549957247617 0 0 0
681 1 1 0.5897 5.317182506420644 11.731665817303888 16.87276350664968 0 0 0
200 1 1 0.5897 5.196569707488276 13.523110504438309 4.823518277443745 0 0 0
173 1 1 0.5897 4.483416822598147 14.040157808826514 2.7297395628528727 0 0 0
172 1 2 -1.1794 5.296030295853884 13.663311665667589 3.067080899225823 0 0 0
293 1 1 0.5897 3.0101130120815127 16.538795123920814 2.6879852465111993 0 0 0
558 1 1 0.5897 3.001062295939248 14.69734538869777 1.1554533417727173 0 0 0
556 1 2 -1.1794 2.9577067197751155 14.851822504231976 2.0990729186329675 0 0 0
557 1 1 0.5897 2.1816165241264107 14.370403962175713 2.3856148807140505 0 0 0
478 1 2 -1.1794 7.562491297420239 14.907439339111367 2.189262339827507 0 0 0
174 1 1 0.5897 5.316782037693407 12.776337692161738 2.7075136425424207 0 0 0
479 1 1 0.5897 8.278741823214494 14.36754444054215 2.523499864952471 0 0 0
449 1 1 0.5897 7.667166783488073 16.54774458351197 2.7980316072270783 0 0 0
480 1 1 0.5897 6.769182274631544 14.47984934950131 2.5117501973244845 0 0 0
373 1 2 -1.1794 0.7834170194349488 13.5168465343152 2.9835641579600174 0 0 0
374 1 1 0.5897 0.7033586380915923 13.550504790899842 3.93677352333199 0 0 0
308 1 1 0.5897 7.504068518415206 17.31555200456759 4.953759206520548 0 0 0
317 1 1 0.5897 7.437325129231975 14.843682580380147 0.4286511775266895 0 0 0
448 1 2 -1.1794 7.697379347041988 17.431900006870112 3.1638126727287994 0 0 0
294 1 1 0.5897 2.9551925625910007 17.467848214268518 3.8820764292448344 0 0 0
292 1 2 -1.1794 2.9958362754149555 17.46600387583841 2.9257840396328993 0 0 0
656 1 1 0.5897 1.4361089897703039 13.952892456851753 6.011607571711258 0 0 0
768 1 1 0.5897 0.17430665789128597 13.945647351347427 10.02557998105598 0 0 0
238 1 2 -1.1794 2.8262254454840945 17.438872321854355 5.654387498787101 0 0 0
59 1 1 0.5897 9.057060474363682 14.14156255306944 9.975641958994997 0 0 0
14 1 1 0.5897 0.816172896753479 11.892655789261221 9.732606531867756 0 0 0
16 1 2 -1.1794 2.819441308584113 14.846097551658753 6.5597766877769805 0 0 0
18 1 1 0.5897 3.575550974620474 14.35690158824691 6.2354546489168925 0 0 0
766 1 2 -1.1794 1.0228137418067458 13.59873631626761 10.300941506102271 0 0 0
201 1 1 0.5897 5.8488569899718375 14.033678412381466 6.0906387408372185 0 0 0
813 1 1 0.5897 2.417815670059573 14.536406811733958 9.6491661473481 0 0 0
307 1 2 -1.1794 7.368069053549443 17.34991771037886 5.900582623721624 0 0 0
382 1 2 -1.1794 3.0269664266244467 17.6095932650505 10.384953804449928 0 0 0
384 1 1 0.5897 3.0899150452594446 16.759707790634458 9.948891545427472 0 0 0
377 1 1 0.5897 6.748430355816989 14.543964331481806 9.739982671244299 0 0 0
517 1 2 -1.1794 7.314686355692192 14.728028078033772 6.688487965551368 0 0 0
454 1 2 -1.1794 5.295449285730334 13.784247345469026 10.3664472521641 0 0 0
376 1 2 -1.1794 7.5604127714351685 14.91755058421305 9.39753509972737 0 0 0
655 1 2 -1.1794 0.6751939181217818 13.45973047517054 5.70502468771637 0 0 0
184 1 2 -1.1794 7.423667965666628 17.45980046176696 10.361866186678077 0 0 0
812 1 1 0.5897 3.9218531335655493 14.685820772169375 9.565118743799404 0 0 0
518 1 1 0.5897 7.3354544329070785 15.632691922977513 6.376072039109351 0 0 0
239 1 1 0.5897 2.806996135211746 16.53395320275172 5.966165406918606 0 0 0
378 1 1 0.5897 7.48538651637287 14.824900187209739 8.447827357107517 0 0 0
456 1 1 0.5897 5.320299882475482 12.873770546021428 10.071698769599763 0 0 0
186 1 1 0.5897 7.499677017480164 16.56183706721951 10.038862232589583 0 0 0
811 1 2 -1.1794 3.103786764204607 15.0897459564829 9.275690462201043 0 0 0
519 1 1 0.5897 8.146585569590883 14.35447662655615 6.3977154827865235 0 0 0
199 1 2 -1.1794 5.106878239001187 13.517004067023429 5.7764448133632005 0 0 0
17 1 1 0.5897 2.9793383213214097 14.940305571716827 7.498770888963363 0 0 0
552 1 1 0.5897 0.7087694040977895 11.82127925218757 6.389439715701311 0 0 0
579 1 1 0.5897 5.044924844824302 11.92346281177601 6.489299301644552 0 0 0
429 1 1 0.5897 5.863501187709973 13.924258877028757 13.43917461590139 0 0 0
232 1 2 -1.1794 2.8770180092563677 14.920404914939338 13.95263641977385 0 0 0
234 1 1 0.5897 2.947827441797319 14.944132570458533 14.906876752154155 0 0 0
606 1 1 0.5897 3.0395541160214448 16.648012708262083 13.501418895334389 0 0 0
427 1 2 -1.1794 5.049008026924274 13.541498118018753 13.113217247736504 0 0 0
233 1 1 0.5897 3.6480652700549925 14.430480528905516 13.666882329212337 0 0 0
639 1 1 0.5897 1.4961330807022997 14.028090412511974 13.37863237889835 0 0 0
428 1 1 0.5897 5.094490821816962 12.621677075291903 13.37460442884828 0 0 0
297 1 1 0.5897 8.191591870457986 14.421489745485248 13.60254346407638 0 0 0
296 1 1 0.5897 7.462192103841109 14.834434548368986 14.863163011459259 0 0 0
295 1 2 -1.1794 7.357629711977154 14.773388296227425 13.913693861491096 0 0 0
270 1 1 0.5897 7.443274794299291 16.480934357034236 13.372034134952834 0 0 0
638 1 1 0.5897 0.8354316830080621 12.668263120427598 13.296881025807261 0 0 0
637 1 2 -1.1794 0.7200690415490889 13.582825792731043 13.038572363711124 0 0 0
455 1 1 0.5897 5.198311362978195 13.726168921647908 11.316891667080187 0 0 0
605 1 1 0.5897 3.06823748073013 17.49662337861158 12.248027632338943 0 0 0
767 1 1 0.5897 0.9683653893036801 13.561356051331908 11.255817783442014 0 0 0
268 1 2 -1.1794 7.52884642508681 17.39420910450805 13.098053750233618 0 0 0
269 1 1 0.5897 7.489964886930344 17.36259521638269 12.142208864348396 0 0 0
604 1 2 -1.1794 3.1176012518761973 17.55400437947565 13.202188235718232 0 0 0
49 1 2 -1.1794 7.512810833568984 14.760822243739696 16.660519411234464 0 0 0
453 1 1 0.5897 0.17634420032782921 13.871562319674418 20.59798991718932 0 0 0
452 1 1 0.5897 0.9813488826361754 12.589364356413686 20.612477161460646 0 0 0
117 1 1 0.5897 8.972070779995779 14.055046634888491 20.615988329103757 0 0 0
715 1 2 -1.1794 3.0387392264735427 17.266894125461913 20.556670108320468 0 0 0
823 1 2 -1.1794 3.0702876138334725 14.88368108510786 16.717621219866633 0 0 0
665 1 1 0.5897 2.438140185011217 14.230814565016992 20.90982248533292 0 0 0
583 1 2 -1.1794 3.025992544407674 17.39613752802714 17.80800685311149 0 0 0
318 1 1 0.5897 7.471715853473643 15.75286822810753 21.075521266722518 0 0 0
157 1 2 -1.1794 7.463736753168737 17.352804949737283 20.39397840769276 0 0 0
124 1 2 -1.1794 5.274827805684462 13.453942751683376 17.509036638729608 0 0 0
664 1 2 -1.1794 3.2192988609551647 14.636245006699975 21.286095312232195 0 0 0
666 1 1 0.5897 3.149231324913209 15.5604617263602 21.04655731708756 0 0 0
610 1 2 -1.1794 7.677965254241414 17.41360983696505 17.658970398058035 0 0 0
126 1 1 0.5897 6.064191288703086 13.929577759180852 17.25046316586822 0 0 0
684 1 1 0.5897 4.607033208840213 13.847181533390481 20.571416007733493 0 0 0
51 1 1 0.5897 8.29443877831019 14.311656391924574 16.98221341475472 0 0 0
825 1 1 0.5897 2.330124603696613 14.322964079005533 16.949956000128886 0 0 0
682 1 2 -1.1794 5.3622919422800335 13.353620681280956 20.25176277081395 0 0 0
50 1 1 0.5897 7.558322050945197 15.632799735053457 17.0529670109055 0 0 0
316 1 2 -1.1794 7.426135297355407 14.8307185580458 21.328555486382513 0 0 0
125 1 1 0.5897 5.296337836955287 13.455532722575368 18.465951689735014 0 0 0
159 1 1 0.5897 7.508254298384867 17.346250768553894 19.43787915031434 0 0 0
824 1 1 0.5897 3.841985548749811 14.38740898368951 16.990363904847044 0 0 0
683 1 1 0.5897 6.119677662957205 13.810817383934866 20.6171636404195 0 0 0
584 1 1 0.5897 3.02173726806261 16.507208982468896 17.452707234276073 0 0 0
451 1 2 -1.1794 0.9792629878239869 13.478030376989016 20.256500063778372 0 0 0
53 1 1 0.5897 0.9675315565094715 13.484083148397831 18.415879814836487 0 0 0
52 1 2 -1.1794 0.9374604043944821 13.437409251105263 17.460333764742877 0 0 0
716 1 1 0.5897 3.079468679891165 17.293964607106993 19.600761214126056 0 0 0
54 1 1 0.5897 0.13768372024503606 13.906282219946593 17.222230188543836 0 0 0
267 1 1 0.5897 5.993497713445338 21.667098422009808 2.8872637832178705 0 0 0
696 1 1 0.5897 1.5010012047188004 21.9184608982205 2.716465595665779 0 0 0
266 1 1 0.5897 4.4808499508665385 21.64351035674814 2.833918657779425 0 0 0
265 1 2 -1.1794 5.230622839388122 21.211161359561153 3.24268620575919 0 0 0
228 1 1 0.5897 5.337502021261301 19.514130228196247 2.606374805161522 0 0 0
343 1 2 -1.1794 0.7283183825674557 18.91406378851241 2.1434687772050074 0 0 0
249 1 1 0.5897 5.245721564533341 21.25353811005185 5.066188928336596 0 0 0
226 1 2 -1.1794 5.402397195617958 18.625488004906916 2.25630926299133 0 0 0
187 1 2 -1.1794 3.067132059334792 22.614772985849633 2.2427829001005692 0 0 0
818 1 1 0.5897 8.241323785241578 22.029065727155015 2.587355226798144 0 0 0
189 1 1 0.5897 3.1204174983849895 22.6488728314105 1.2877179700891324 0 0 0
344 1 1 0.5897 1.4858758855802392 18.395366289705784 2.4141361615699726 0 0 0
817 1 2 -1.1794 7.442762237201192 22.446682349467682 2.2647727427182156 0 0 0
345 1 1 0.5897 0.7390112394839069 18.873512786224616 1.1872301273945196 0 0 0
413 1 1 0.5897 0.7323860617632028 21.41315510126114 4.771919620747229 0 0 0
695 1 1 0.5897 0.7518711584354077 20.602753265085916 2.7138616996771674 0 0 0
227 1 1 0.5897 4.5557969667854845 18.226234182376913 2.456344636980532 0 0 0
694 1 2 -1.1794 0.6779962460657315 21.515501119983796 2.9929505805162737 0 0 0
450 1 1 0.5897 6.864712099739829 17.82708987852548 2.905659642500249 0 0 0
498 1 1 0.5897 7.439675832620767 22.537302624043097 0.5120096163988717 0 0 0
321 1 1 0.5897 9.098692280029777 18.308589102581045 2.4424824388693502 0 0 0
602 1 1 0.5897 5.3432588510026555 18.70085686356645 0.38156884532988383 0 0 0
819 1 1 0.5897 7.490547418055105 23.343810519424157 2.595413825052778 0 -1 0
309 1 1 0.5897 8.11866092261831 17.84206558176926 6.233146600108934 0 0 0
404 1 1 0.5897 1.495439934925267 18.189029815261602 9.658732729551197 0 0 0
386 1 1 0.5897 5.878221338592679 18.205475466016843 6.440646359454268 0 0 0
555 1 1 0.5897 5.174694078555977 20.553590419108286 10.117623084806334 0 0 0
101 1 1 0.5897 6.048443104898885 18.38052546473999 9.739351088385257 0 0 0
700 1 2 -1.1794 2.956225108233383 22.632371325959504 6.688797356044174 0 0 0
385 1 2 -1.1794 5.063447194827017 18.575088252369756 6.780763379806102 0 0 0
240 1 1 0.5897 3.6214805562559014 17.808185064989324 6.038222660715825 0 0 0
100 1 2 -1.1794 5.29571139937534 18.909852569383556 9.475873173461345 0 0 0
102 1 1 0.5897 5.270108537717739 18.8326405584321 8.522177149594137 0 0 0
94 1 2 -1.1794 0.724009238373992 21.151423076925322 10.231389224194118 0 0 0
32 1 1 0.5897 8.199214253182008 22.131568019306936 6.40941864068774 0 0 0
387 1 1 0.5897 5.08913922089469 19.495290909996132 6.518029036683579 0 0 0
405 1 1 0.5897 0.65033056466834 19.44509147881251 9.641052199775617 0 0 0
38 1 1 0.5897 2.10741096178085 22.06083036054116 9.739045211877897 0 0 0
554 1 1 0.5897 5.931087159541429 21.862304375584337 10.203794822479908 0 0 0
702 1 1 0.5897 2.1681831262095947 22.1781160018294 6.390776402598784 0 0 0
342 1 1 0.5897 0.6685699562764369 18.695099365860116 7.546596601199793 0 0 0
87 1 1 0.5897 8.219734009238774 22.186375138089172 9.788818997735715 0 0 0
31 1 2 -1.1794 7.475187784177512 22.635038284137515 6.781578698197614 0 0 0
383 1 1 0.5897 3.7931597387750378 18.094278766131918 10.078004737457492 0 0 0
340 1 2 -1.1794 0.6650120042679594 18.792177098952322 6.594379326206523 0 0 0
247 1 2 -1.1794 5.25046367767098 21.21883554162583 6.022705545495863 0 0 0
185 1 1 0.5897 8.227203680216613 17.88928607846035 10.06854264486971 0 0 0
414 1 1 0.5897 0.702216224217723 20.516968544520854 5.9917263835203425 0 0 0
33 1 1 0.5897 6.697089069239064 22.10953079130172 6.595545645434707 0 0 0
85 1 2 -1.1794 7.388496274073697 22.56913021450751 9.508303167734681 0 0 0
341 1 1 0.5897 1.395884424047256 18.251260315328594 6.295301297405114 0 0 0
86 1 1 0.5897 7.424077635034814 22.545718407627 8.552093290580617 0 0 0
248 1 1 0.5897 4.426640543176852 21.631503212259418 6.281894258052106 0 0 0
403 1 2 -1.1794 0.6913659740261032 18.55518970977919 9.29057535864 0 0 0
553 1 2 -1.1794 5.121662041638119 21.435919726965423 10.485212946112412 0 0 0
39 1 1 0.5897 3.618139246096726 22.143534838476167 9.787749881373061 0 0 0
412 1 2 -1.1794 0.6976849697360719 21.437276476398853 5.7281437399260335 0 0 0
701 1 1 0.5897 2.8766982219158392 22.65032954609454 7.642477853057276 0 0 0
37 1 2 -1.1794 2.847009855036753 22.585349934103338 9.432315981313307 0 0 0
88 1 2 -1.1794 5.201320662083948 21.456691226192845 13.177735959844291 0 0 0
381 1 1 0.5897 1.4348333743536672 21.72578656776397 13.338430074809464 0 0 0
90 1 1 0.5897 5.240985320699722 20.53204820603302 13.4225397593471 0 0 0
763 1 2 -1.1794 5.425386973594514 18.885361595401363 14.010134438788839 0 0 0
738 1 1 0.5897 3.6467405365415697 22.246440254249755 13.771653963000842 0 0 0
89 1 1 0.5897 5.1628599672560185 21.45025418856381 12.221373167713253 0 0 0
736 1 2 -1.1794 2.8188062407839465 22.641710436413863 14.044485740196471 0 0 0
789 1 1 0.5897 6.716353702224011 22.21233095653936 13.683960926285105 0 0 0