LAMMPS data file via write_data, version 30 Jul 2021, timestep = 10250000

1296 atoms
2 atom types
864 bonds
1 bond types
432 angles
1 angle types

-10.5789710240847 12.5589710240847 xlo xhi
-9.023145000007734 12.013143000007734 ylo yhi
0.29789549466591225 21.562103505340797 zlo zhi
-9.130599108871827 1.9505366623144227 2.71784630585187 xy xz yz

Masses

1 1.008
2 15.999

Pair Coeffs # lj/cut/tip4p/long/omp

1 0 0
2 0.21084 3.1668

Bond Coeffs # harmonic/omp

1 450 0.9572

Angle Coeffs # harmonic/omp

1 55 104.52

Atoms # full

282 94 1 0.5897 -10.405044783560836 -4.110771932830008 1.7758717660261651 1 1 0
280 94 2 -1.1794 -9.529462971616827 -4.482756711579349 1.6698476456838034 1 1 0
299 100 1 0.5897 -6.490853701429502 -7.813373798503397 4.246623621664072 1 1 0
163 55 2 -1.1794 -7.175569527428191 -7.935615441894289 1.0643950142467675 1 1 0
164 55 1 0.5897 -6.341996775414134 -8.311374231817494 1.3476298062016516 1 1 0
270 90 1 0.5897 -8.458624948788069 -7.303348789086352 2.217464140403343 1 1 0
269 90 1 0.5897 -9.230819166503947 -6.0250263216935505 2.4648038510337975 1 1 0
268 90 2 -1.1794 -9.107355807436166 -6.912025132905292 2.802524180386578 1 1 0
324 108 1 0.5897 -7.061131784088323 -4.2583034719331065 3.6125089845683847 1 1 0
73 25 2 -1.1794 -8.296600234692457 -3.662589327618206 4.890276308158401 1 0 0
298 100 2 -1.1794 -5.9060263594446925 -7.057192075203782 4.2938943639346165 1 1 0
314 105 1 0.5897 -8.876766604515314 -6.66361228911871 4.5333654785623825 1 1 0
323 108 1 0.5897 -6.25621345996914 -5.532330822025361 3.4691922217656814 1 1 0
84 28 1 0.5897 -8.096965489422654 -0.4766653117788895 4.158994921978209 1 0 0
261 87 1 0.5897 -6.710576881541152 -5.021549912605755 1.3576586099939028 1 1 0
315 105 1 0.5897 -8.676447645800753 -5.429117691430976 5.386265099061675 1 1 0
67 23 2 -1.1794 -10.55319933803929 -2.3377975514573155 4.100087764933946 1 0 0
273 91 1 0.5897 -10.434897758034133 -1.4978226605596525 0.4252705071860712 1 1 0
281 94 1 0.5897 -8.941483009598205 -3.728761068087829 1.7127259629470097 1 1 0
75 25 1 0.5897 -9.087349446723321 -3.2728143122955515 4.517380437705844 1 0 0
260 87 1 0.5897 -6.970580826614204 -6.220469632572014 0.47077712541708494 1 1 0
259 87 2 -1.1794 -6.826809922059492 -5.27469664979669 0.44183777328918805 1 1 0
97 33 2 -1.1794 -11.718807704830652 0.5927305808319385 5.40011939393308 1 0 0
83 28 1 0.5897 -9.56695351769106 -0.8370121732262685 4.124257501903214 1 0 0
313 105 2 -1.1794 -8.796892822635614 -6.376878596930893 5.443156146263407 1 1 0
68 23 1 0.5897 -11.182737648011289 -2.45992867704204 4.810789524275696 1 0 0
99 33 1 0.5897 -11.565999148923924 1.536856968343459 5.3644987452849735 1 0 0
271 91 2 -1.1794 -10.193218510790604 -0.885603455095497 1.120216509380083 1 1 0
272 91 1 0.5897 -9.390225537726003 -1.2499825242120526 1.4926340448509843 1 1 0
69 23 1 0.5897 -11.045240492247864 -2.544368938957197 3.3054054535067827 1 0 0
44 15 1 0.5897 -9.856171852021951 0.8427415260410456 0.5161455896191997 1 0 0
258 86 1 0.5897 -12.372506376763464 -2.734930707724155 1.3299955301869604 1 1 0
53 18 1 0.5897 -12.365389538096238 1.0364491613207445 2.3996758545857184 1 0 0
59 20 1 0.5897 -13.523675565929612 -0.9603431411186065 3.403234478794354 1 0 0
54 18 1 0.5897 -11.569407956862202 -0.21984181440937078 2.117295505997921 1 0 0
52 18 2 -1.1794 -12.24475613482354 0.13435678114493932 2.6958620632246824 1 0 0
256 86 2 -1.1794 -11.94559136543253 -3.313423526590684 1.961917853563369 1 1 0
82 28 2 -1.1794 -8.97171993341674 -0.08804986094258993 4.152900994498986 1 0 0
107 36 1 0.5897 -9.230738959533923 1.5188993307753798 3.437418611274156 1 0 0
301 101 2 -1.1794 -7.931610728744285 -2.21780063406817 1.812547450100288 1 1 0
98 33 1 0.5897 -11.87871569793139 0.34107616919260764 4.490494479249515 1 0 0
275 92 1 0.5897 -10.517051532527164 -7.874891234169891 3.4472483028563308 1 1 0
300 100 1 0.5897 -5.037954971373042 -7.412753812146075 4.103388742643231 1 1 0
322 108 2 -1.1794 -6.4002453548994165 -4.678241342277775 3.0619148974499084 1 1 0
165 55 1 0.5897 -7.474175996442584 -8.51490851475687 0.3633698758520286 1 1 0
420 140 1 0.5897 -9.035033279958789 -6.390828375737132 9.975318111882626 1 0 0
414 138 1 0.5897 -6.773003546014451 -4.814409535991457 7.644204851149851 1 0 0
413 138 1 0.5897 -7.627322665204511 -3.579631085261475 7.836745399357454 1 0 0
412 138 2 -1.1794 -7.494883325418808 -4.467584596368792 8.168503533897884 1 0 0
350 117 1 0.5897 -7.090123663319656 -4.231892110761675 9.963600553501122 0 0 0
429 143 1 0.5897 -6.35888329881806 -7.094920289112374 8.721401879330116 1 0 0
428 143 1 0.5897 -6.501893846685984 -7.027507741587357 10.227132370528635 1 0 0
427 143 2 -1.1794 -5.87328939171299 -6.885513414842068 9.519302520970138 1 0 0
627 209 1 0.5897 -10.213442711287332 -6.707684075000344 6.482514926739348 1 1 0
618 206 1 0.5897 -7.807920543599784 -7.1943220687422755 6.717975174785452 1 1 0
419 140 1 0.5897 -8.80048946257932 -5.373110710425235 8.879382413712582 1 0 0
418 140 2 -1.1794 -9.496550921036935 -5.8247788812070045 9.356587678929287 1 0 0
616 206 2 -1.1794 -7.338902988088866 -7.755783424830206 7.335245596405124 1 1 0
349 117 2 -1.1794 -6.971850584452794 -3.886512230003488 10.848484613409036 0 0 0
351 117 1 0.5897 -6.816099244810713 -2.9507149586199244 10.721877825237195 0 0 0
410 137 1 0.5897 -13.430218263913183 0.47817958554203344 7.883440023194239 1 0 0
402 134 1 0.5897 -10.720600529285536 -0.30842665399209324 6.599841267199112 1 0 0
527 176 1 0.5897 -11.817499287280523 1.6490120413681133 8.813438614134165 1 0 0
522 174 1 0.5897 -9.755835022688292 2.1991737705420853 7.591667574549909 1 0 0
426 142 1 0.5897 -8.6967970306656 -1.5835846323051896 7.051950414505351 1 0 0
526 176 2 -1.1794 -12.545080167239137 1.2070462075187631 9.251069649680382 1 0 0
401 134 1 0.5897 -11.049845559295282 -1.3091993891880955 7.6869924175980335 1 0 0
537 179 1 0.5897 -9.432161635638929 -0.2032864929392062 8.653721894481752 1 0 0
536 179 1 0.5897 -9.704632031907805 -0.11844316366279273 10.140592110309722 1 0 0
535 179 2 -1.1794 -9.012579055141273 -0.0004618319127427384 9.489851111402904 1 0 0
528 176 1 0.5897 -12.125378987190274 0.5892702923416753 9.849750227505298 1 0 0
424 142 2 -1.1794 -7.823302566732538 -1.9747834711967958 7.036997862708701 1 0 0
435 145 1 0.5897 -7.493595137758776 -1.0058369457859353 9.749645346759028 0 0 0
400 134 2 -1.1794 -10.317182357072467 -0.8447507237306198 7.2823839888253685 1 0 0
411 137 1 0.5897 -13.139778119108922 0.2442580102261953 6.416088928141004 1 0 0
425 142 1 0.5897 -7.228606662752917 -1.2307520541586685 6.942994741153438 1 0 0
417 139 1 0.5897 -8.883592246627227 0.9948822824699128 5.6247407922218855 1 0 0
415 139 2 -1.1794 -8.603083126823316 1.5608469118637789 6.343899229976682 1 0 0
626 209 1 0.5897 -10.447676669064382 -6.557218281150684 7.970704317962901 1 1 0
633 211 1 0.5897 -5.814327156513246 -5.926060882370464 5.753562737497681 1 1 0
631 211 2 -1.1794 -5.536770350665223 -5.370753007583476 6.482118652199977 1 1 0
74 25 1 0.5897 -8.097652882131332 -3.1191425762186853 5.652700472356504 1 0 0
652 218 2 -1.1794 -5.61317181165201 -5.434170498745543 12.719171551398215 0 0 0
788 263 1 0.5897 -4.866905714297996 -4.566955650337185 15.575875309998743 0 0 0
780 260 1 0.5897 -7.406205119013519 -3.8924896621088836 15.274346885062243 0 0 0
779 260 1 0.5897 -7.165647452665521 -2.881703812480821 14.173308953193958 0 0 0
778 260 2 -1.1794 -7.864132724534122 -3.3367320455048484 14.643729411888167 0 0 0
768 256 1 0.5897 -9.459694925696486 -2.555113198627015 14.844643713147327 0 0 0
654 218 1 0.5897 -6.019604629519086 -4.820800063435718 12.106953647921625 0 0 0
653 218 1 0.5897 -6.347509007004823 -5.812663665806343 13.202642666380813 0 0 0
766 256 2 -1.1794 -10.337267198805193 -2.1731259951953374 14.85905790462265 0 0 0
740 247 1 0.5897 -10.674651849279483 -3.3246456278919796 11.930891547344903 1 0 0
729 243 1 0.5897 -7.944933515898741 -7.04952579375256 12.013013737693692 1 0 0
684 228 1 0.5897 -8.474042643270632 -6.435316537816653 14.336034277720481 0 0 0
682 228 2 -1.1794 -7.746324430370231 -6.763625203941709 13.807896668011294 0 0 0
663 221 1 0.5897 -8.48493375709505 -4.251225457031796 11.72993501530199 0 0 0
662 221 1 0.5897 -8.764473664808968 -4.126522424819275 13.21267584283731 0 0 0
661 221 2 -1.1794 -9.181475006793006 -4.346534436745318 12.379606485354865 0 0 0
835 279 2 -1.1794 -11.164793404750725 -0.3054301768169516 11.127987751174668 1 0 0
727 243 2 -1.1794 -8.066573087459437 -7.356039565929184 11.114369852903646 1 0 0
791 264 1 0.5897 -10.542014809333264 -0.6342054740482812 14.087002511961598 0 0 0
866 289 1 0.5897 -12.456869894754085 1.6904934663887907 16.210723410436728 0 0 0
770 257 1 0.5897 -11.893091731469365 2.881907589394917 13.290316128231678 0 0 0
836 279 1 0.5897 -11.303885150746334 -1.2493148497318867 11.203707063477767 1 0 0
790 264 2 -1.1794 -10.67861320353655 0.2563023533082731 13.763893165078708 0 0 0
771 257 1 0.5897 -11.668559668956641 2.730930635902963 11.80068427034256 0 0 0
769 257 2 -1.1794 -12.328845648298886 2.608903749967155 12.482929895928134 0 0 0
761 254 1 0.5897 -9.355766187497439 1.177823903241487 13.036060222254862 0 0 0
888 296 1 0.5897 -10.327621330010444 3.0342629922888413 15.24765377584915 0 0 0
762 254 1 0.5897 -9.125606059819027 2.2323046614768156 11.974501845244806 0 0 0
760 254 2 -1.1794 -8.662219745759307 1.6615399206686483 12.587477141268423 0 0 0
792 264 1 0.5897 -11.355983663162743 0.6176933305238599 14.335604553488999 0 0 0
837 279 1 0.5897 -11.015937571063835 -0.011999122904791548 12.026898435277715 1 0 0
896 299 1 0.5897 -7.964582615901061 2.4290337003687483 15.473902769671158 0 0 0
767 256 1 0.5897 -10.92663366025496 -2.9222655236924666 14.772410044846541 0 0 0
758 253 1 0.5897 -9.350320344608079 -5.18028976429844 16.16364154593991 0 0 0
757 253 2 -1.1794 -9.666395448470842 -5.785672043972028 15.492985144689516 0 0 0
789 263 1 0.5897 -4.696282753426925 -4.702489193537303 14.077632909226873 0 0 0
1089 363 1 0.5897 -6.330693745505458 -4.624686115913219 17.370299952804057 0 0 0
1152 384 1 0.5897 -6.661739542304366 -4.04037640986202 19.67083510917562 0 0 0
1225 409 2 -1.1794 -7.969490330046141 -3.443261558466576 20.775379336764182 0 0 0
1227 409 1 0.5897 -8.819396399821562 -3.1495054833258056 20.44729912490046 0 0 0
1109 370 1 0.5897 -8.680874169770389 -3.387661574977095 17.61833004019588 0 0 0
1219 407 2 -1.1794 -10.277125481422091 -2.139715294293506 20.06865286809538 0 0 0
1108 370 2 -1.1794 -9.263564411764257 -4.146055335469934 17.655513330258348 0 0 0
1129 377 2 -1.1794 -7.639315078945353 -1.909852568579586 17.66530273722537 0 0 0
1151 384 1 0.5897 -5.870698937103322 -5.308209024026692 19.429108822894058 0 0 0
1150 384 2 -1.1794 -5.963624266101675 -4.404891011702279 19.126732042360334 0 0 0
1248 416 1 0.5897 -5.7972984206125755 -1.537946843391289 20.538963097937227 0 0 0
1097 366 1 0.5897 -8.92632560312676 -5.775413217417324 18.403516537972987 0 0 0
1130 377 1 0.5897 -7.181313705030665 -1.7305853145736059 18.486523728869344 0 0 0
1143 381 1 0.5897 -8.246751173125844 -5.131231379942293 21.3736957755012 0 0 0
1195 399 2 -1.1794 -9.396251194369139 2.030509823777747 16.462779015008536 0 0 0
1141 381 2 -1.1794 -8.366133636188238 -6.07649206438966 21.464373449375525 0 0 0
1110 370 1 0.5897 -10.140213801291203 -3.771322923923437 17.741071362621717 0 0 0
1131 377 1 0.5897 -6.9820690366529785 -1.7587641024250242 16.98594587813745 0 0 0
1142 381 1 0.5897 -8.45191232739008 -6.39476769104637 20.565681263822817 0 0 0
1121 374 1 0.5897 -4.637612943371343 -3.4491999298793523 18.506320346510122 0 0 0
1088 363 1 0.5897 -6.532223423868674 -5.873036253363761 16.5381104475734 0 0 0
1229 410 1 0.5897 -7.717773364891601 3.5213660288093305 18.302594741311374 0 0 0
1101 367 1 0.5897 -10.185781312810159 -1.1398938718711005 16.323728930219147 0 0 0
1217 406 1 0.5897 -11.623570452671157 3.6065043633030633 17.577667723498585 0 0 0
1218 406 1 0.5897 -13.09596815286038 3.2619701464990722 17.65035382865361 0 0 0
1249 417 2 -1.1794 -11.573506671754071 0.959857584232271 21.44289641252144 0 0 0
1196 399 1 0.5897 -9.59977505422465 1.0988364897686456 16.543792741744724 0 0 0
1246 416 2 -1.1794 -6.198193790624649 -1.0151909746378927 19.84451180097065 0 0 0
1250 417 1 0.5897 -11.5682862904803 0.6913728553921707 20.52408659741395 0 0 0
1009 337 2 -1.1794 -11.029774561318765 3.566293599562824 20.769691687990147 0 -1 0
1260 420 1 0.5897 -9.673704832128442 3.047594098643051 19.66198468974786 0 0 0
1259 420 1 0.5897 -8.940124156474345 1.7364266936978296 19.47695463775799 0 0 0
1258 420 2 -1.1794 -9.05697954586729 2.600526884730538 19.08229128246071 0 0 0
1100 367 1 0.5897 -9.202209505750027 -0.895862652321167 17.44848699003598 0 0 0
1236 412 1 0.5897 -7.765905859761276 -0.17603734021686535 20.173418339061534 0 0 0
1235 412 1 0.5897 -9.226345770299533 -0.5731136152404908 20.136592234452706 0 0 0
1234 412 2 -1.1794 -8.650253998931479 0.18418038750765575 20.23997776733607 0 0 0
1205 402 1 0.5897 -12.016501741196349 1.2312061323161512 18.401020690540392 0 0 0
1197 399 1 0.5897 -9.338884793473953 2.342944676336586 17.365775546246 0 0 0
1216 406 2 -1.1794 -12.230713926464805 2.867522722636634 17.540801517173524 0 0 0
1206 402 1 0.5897 -11.319489248376875 -0.09477971368800198 18.183163445887693 0 0 0
1099 367 2 -1.1794 -10.010399645389825 -0.5576022980595958 17.062899216626764 0 0 0
1251 417 1 0.5897 -11.394263893988253 1.8997006203236069 21.41919865058572 0 0 0
1087 363 2 -1.1794 -6.38332732551994 -4.930463894740279 16.464738403289868 0 0 0
1011 337 1 0.5897 -11.875821426946638 3.8826561682079195 20.452852060656703 0 -1 0
1096 366 2 -1.1794 -8.783966576066174 -6.635936360526493 18.797613960766544 0 0 0
1226 409 1 0.5897 -7.7564739411284425 -2.8267823893582715 21.475915632722167 0 0 0
40 14 2 -1.1794 -14.98944034293573 3.7790474277075656 1.912373480312632 1 0 0
177 59 1 0.5897 -14.050218620200562 4.440004963351557 3.3341652166555145 1 0 0
42 14 1 0.5897 -15.469811151134678 4.305231384872867 1.2731357589315537 1 0 0
85 29 2 -1.1794 -10.999196842968692 4.8464440583415875 1.6774016806388916 1 0 0
55 19 2 -1.1794 -13.241167200731992 6.182866082793854 0.9580652998823913 1 0 0
56 19 1 0.5897 -12.408084512489367 5.826375129777476 1.266526401048716 1 0 0
66 22 1 0.5897 -13.375883539921253 3.0112427869133658 1.5725195799112148 1 0 0
65 22 1 0.5897 -11.890250502807882 3.3002731359655115 1.5363298258447708 1 0 0
64 22 2 -1.1794 -12.520661474009025 2.5813641644111094 1.5792351598259478 1 0 0
191 64 1 0.5897 -12.5759609985041 6.23403104688653 4.334752142510457 1 0 0
190 64 2 -1.1794 -11.973203656918221 6.977158201841238 4.35754730048975 1 0 0
183 61 1 0.5897 -12.132200914941787 3.6379798616774686 4.449693342554304 1 0 0
181 61 2 -1.1794 -11.342930596182846 3.2718177056452404 4.848747191243785 1 0 0
176 59 1 0.5897 -14.22684076493389 4.5346080258588835 4.834855706004576 1 0 0
175 59 2 -1.1794 -13.606181420598036 4.727298162481615 4.1320222118909475 1 0 0
108 36 1 0.5897 -10.097827956861233 2.7394169414633804 3.661282574494091 1 0 0
162 54 1 0.5897 -14.41927443705956 6.672563561900194 2.216350137408144 1 0 0
45 15 1 0.5897 -9.654765118351879 2.105051135995234 1.327024949305198 1 0 0
167 56 1 0.5897 -16.400624158144204 6.170752415495542 3.466448727395472 1 0 0
206 69 1 0.5897 -14.864917697630743 7.424506021415375 4.55575724915093 1 0 0
152 51 1 0.5897 -12.884799507671145 7.903899340624932 0.5265561970300905 1 0 0
43 15 2 -1.1794 -9.709089479802774 1.7842201199207022 0.42679007081815845 1 0 0
106 36 2 -1.1794 -9.385783737178615 2.4066020289286048 3.1149137871045554 1 0 0
160 54 2 -1.1794 -15.0404657747589 7.096136199679059 2.8087875728698717 1 0 0
284 95 1 0.5897 -17.336649467887835 11.594771265973552 4.795563879630932 1 0 0
153 51 1 0.5897 -12.642111461220889 9.172301006989109 1.3163434809434535 1 0 0
151 51 2 -1.1794 -12.71875080687736 8.840611231298375 0.42168640540522023 1 0 0
216 72 1 0.5897 -13.09863025345806 9.790335603211382 3.6905772697336836 1 0 0
215 72 1 0.5897 -12.30628655102403 8.51481800364052 3.498710698053366 1 0 0
174 58 1 0.5897 -16.430636135996252 9.902608016193657 1.7404313746678113 1 0 0
173 58 1 0.5897 -14.983144259909135 10.343424438166341 1.6919447957743095 1 0 0
172 58 2 -1.1794 -15.537587304718883 9.563353259325915 1.6801512973545123 1 0 0
161 54 1 0.5897 -15.178209425376213 7.964665347348262 2.4309476644590653 1 0 0
193 65 2 -1.1794 -14.002181212766757 11.878540894872184 1.757170768834815 1 0 0
283 95 2 -1.1794 -16.655361271334748 11.708559221358303 4.132825329775237 1 0 0
285 95 1 0.5897 -17.084498142386508 11.485768405635014 3.306686080331388 1 0 0
148 50 2 -1.1794 -18.033907195153148 10.600649468612207 1.9565325400834517 1 0 0
150 50 1 0.5897 -18.486037164833604 11.145559594786462 1.3124081496921243 1 0 0
289 97 2 -1.1794 -14.346332754252328 10.380588801673053 4.892737084987722 1 0 0
291 97 1 0.5897 -15.147853982728414 10.70898079749464 4.485311862215695 1 0 0
192 64 1 0.5897 -11.110003811513957 6.590782690523447 4.2097017523359685 1 0 0
207 69 1 0.5897 -14.676676832768933 8.680616826641721 5.3793241318063725 1 0 0
205 69 2 -1.1794 -14.841110751765699 7.741125055881973 5.4588024445532515 1 0 0
214 72 2 -1.1794 -12.416644591851444 9.397572274901723 3.1456820977114726 1 0 0
290 97 1 0.5897 -14.125665237474195 11.037981189075012 5.552501584000068 1 0 0
182 61 1 0.5897 -11.120185431196113 3.886372158177714 5.54794845867295 1 0 0
86 29 1 0.5897 -10.61014726220312 5.083183316347595 2.5193591624785006 1 0 0
57 19 1 0.5897 -13.548069010578061 5.5492069832972994 0.3096469660803809 1 0 0
532 178 2 -1.1794 -10.998262290496163 5.023059938787581 7.076162862909678 1 0 0
521 174 1 0.5897 -10.627876836631877 3.4165474550811172 7.813399430352045 1 0 0
534 178 1 0.5897 -11.872435928476113 5.406372483247651 7.147912259527725 1 0 0
645 215 1 0.5897 -12.396100417449853 7.00953751060112 8.60608712546237 1 0 0
644 215 1 0.5897 -12.620765271445812 7.136681726907529 10.097923311874696 1 0 0
643 215 2 -1.1794 -11.945732519369516 7.21941916532268 9.424265234192186 1 0 0
510 170 1 0.5897 -13.862146542517383 6.775321084317046 6.622191808873768 1 0 0
508 170 2 -1.1794 -13.428042478548349 6.244387623875488 7.289960967187005 1 0 0
543 181 1 0.5897 -10.497851737728322 6.186830948373329 9.800039822721233 0 0 0
509 170 1 0.5897 -14.136552043170955 5.748500181644241 7.700230828890088 1 0 0
636 212 1 0.5897 -15.133513608327636 7.633705977766063 9.813854298305865 1 0 0
459 153 1 0.5897 -10.08225030038966 4.0953443303960455 10.726940523824021 0 0 0
519 173 1 0.5897 -16.25357305713196 7.244319840366089 6.430201416513459 1 0 0
533 178 1 0.5897 -10.404418518052614 5.773275952661903 7.100599413276841 1 0 0
565 189 2 -1.1794 -13.008418567345386 10.210501863117575 10.863010205023736 0 0 0
642 214 1 0.5897 -14.862990387277673 12.515186934319573 7.063139782933551 1 0 0
457 153 2 -1.1794 -10.177846720308153 3.1509490577968293 10.849337943210019 0 0 0
640 214 2 -1.1794 -13.993344022977364 12.11779361948334 7.017916315443965 1 0 0
327 109 1 0.5897 -13.51249417085775 13.216066796494939 9.985521149174877 0 -1 0
641 214 1 0.5897 -13.38893969129323 12.859583440734209 7.040716102882746 1 0 0
617 206 1 0.5897 -17.15693343202227 12.77863473469477 7.773156477699331 1 0 0
567 189 1 0.5897 -12.918933406532766 11.161959722904083 10.810912324168063 0 0 0
630 210 1 0.5897 -12.844427663804378 9.265863320803454 7.671050752598439 1 0 0
628 210 2 -1.1794 -13.498887870453396 9.673596219155481 8.238246470710013 1 0 0
629 210 1 0.5897 -13.645177283788378 10.537552538925741 7.85320443859249 1 0 0
634 212 2 -1.1794 -15.588410267971042 8.170483117224055 9.164870647469275 1 0 0
635 212 1 0.5897 -14.898283678707028 8.699503850069348 8.764804187723746 1 0 0
566 189 1 0.5897 -13.149142515881884 9.932836619676682 9.957796071303544 0 0 0
525 175 1 0.5897 -11.93209367128092 8.044765595973221 5.804676324057665 1 0 0
523 175 2 -1.1794 -11.646582859026125 8.679686453232815 6.461577590544129 1 0 0
520 174 2 -1.1794 -10.454220771136344 2.5382049752201272 8.151672863051957 1 0 0
458 153 1 0.5897 -10.13548971172664 2.788838152460876 9.964251025560543 0 0 0
874 292 2 -1.1794 -13.187168194975104 4.872298385341196 14.811060590160158 0 0 0
887 296 1 0.5897 -10.094353679404207 3.9484050686095227 14.063657938872796 0 0 0
876 292 1 0.5897 -12.322325589130658 4.4632493806722895 14.779817371994094 0 0 0
945 315 1 0.5897 -14.040104081859665 7.104961969203995 11.92865359292144 1 0 0
848 283 1 0.5897 -13.685635278803424 3.674529758269431 11.923531059706077 1 0 0
900 300 1 0.5897 -14.437524939996594 7.689030034204677 14.315901301329959 0 0 0
899 300 1 0.5897 -13.607092993103844 6.441714746321377 14.100998930799426 0 0 0
898 300 2 -1.1794 -13.750746340032912 7.323677324306324 13.758104955652197 0 0 0
886 296 2 -1.1794 -10.78906485746837 3.5711445323931326 14.603388629714487 0 0 0
944 315 1 0.5897 -14.283866013993684 5.8346019319117275 11.142356760259531 1 0 0
869 290 1 0.5897 -12.37253808124251 8.17702759618307 13.01403976694357 0 0 0
943 315 2 -1.1794 -14.150412154495259 6.776387060635246 11.036370344324938 1 0 0
650 217 1 0.5897 -15.571035424687068 8.784100879957368 16.22589359599194 0 -1 0
868 290 2 -1.1794 -11.642306815623721 8.6380323748098 12.60117298863411 0 0 0
660 220 1 0.5897 -15.454366138337381 11.473784223856228 14.815667612048925 0 -1 0
670 224 2 -1.1794 -13.87932420807348 10.663301273584153 14.54400837273615 0 -1 0
956 319 1 0.5897 -16.823048396265868 10.663923574783446 11.948423920990862 1 0 0
877 293 2 -1.1794 -15.288610207251585 9.712361853137413 12.32746950438955 0 0 0
878 293 1 0.5897 -14.842676464564327 9.94472117575977 13.141992403025876 0 0 0
879 293 1 0.5897 -14.628096867949711 9.84177900810456 11.646808031049135 0 0 0
875 292 1 0.5897 -13.801073641875373 4.138869607302022 14.775287505861394 0 0 0
728 243 1 0.5897 -17.35328075091522 12.739944622960383 11.200717420192646 1 -1 0
680 227 1 0.5897 -10.95264109895464 9.429765262512692 15.44384745814843 0 -1 0
683 228 1 0.5897 -16.69909211708158 13.400682101315287 14.160175284628291 0 -1 0
658 220 2 -1.1794 -16.325522955415323 11.845842117228461 14.953211848218741 0 -1 0
672 224 1 0.5897 -13.449580458734111 10.10975630138348 15.19604615995565 0 -1 0
870 290 1 0.5897 -12.058091370138552 9.261499951847487 12.005670812189262 0 0 0
671 224 1 0.5897 -13.1634248412681 11.1423245667572 14.126591838754013 0 -1 0
847 283 2 -1.1794 -14.507778293520175 4.052694455171586 11.611549119551102 1 0 0
659 220 1 0.5897 -16.91083468635303 11.088648756602787 14.965021591785113 0 -1 0
1018 340 2 -1.1794 -11.667142220717945 7.167698914733609 20.12597048002345 0 -1 0
1019 340 1 0.5897 -12.26057625033901 6.418406111053823 20.076274090600183 0 -1 0
1020 340 1 0.5897 -10.794044285460913 6.7899403550759825 20.01988375858273 0 -1 0
1030 344 2 -1.1794 -9.177830549646123 6.016568522201011 19.880274908393563 0 -1 0
1043 348 1 0.5897 -12.027575082577549 8.73942663292199 19.43692083518637 0 -1 0
1032 344 1 0.5897 -8.78864049237776 5.423649142747912 20.52308890108083 0 -1 0
1239 413 1 0.5897 -9.901508698832068 5.16202666406733 16.980791252225853 0 0 0
1237 413 2 -1.1794 -10.552046141279407 5.070364596755471 17.67701770103064 0 0 0
1003 335 2 -1.1794 -13.325335430277903 4.932940501118191 20.13703396848744 0 -1 0
1208 403 1 0.5897 -12.041696765245522 6.073715951289893 17.334639251025024 0 0 0
1207 403 2 -1.1794 -12.821393522791116 6.517586183768344 17.00102287889414 0 0 0
1238 413 1 0.5897 -10.08886592348678 5.328751094264465 18.473878571644754 0 0 0
990 330 1 0.5897 -14.216768182879107 7.05176735991795 18.049263804988975 0 -1 0
989 330 1 0.5897 -14.979357597247414 8.323911512738345 18.352053921277495 0 -1 0
1034 345 1 0.5897 -14.582765247949315 7.694839588414855 20.384476494767426 0 -1 0
980 327 1 0.5897 -12.535818616940723 8.196010307002098 16.38655869317372 0 -1 0
1035 345 1 0.5897 -14.30458602418984 8.922285038007441 21.22562109483003 0 -1 0
1118 373 1 0.5897 -13.84789794843676 11.26193241468879 21.53845551539595 0 -1 0
1002 334 1 0.5897 -16.203209441470236 10.2911512771541 17.703576709017856 0 -1 0
988 330 2 -1.1794 -14.876513317601567 7.416666916899697 18.639070277237384 0 -1 0
979 327 2 -1.1794 -12.448304256178082 9.147201382256092 16.326796265697006 0 -1 0
1033 345 2 -1.1794 -14.477028413017123 7.983152185516456 21.291120697003343 0 -1 0
1042 348 2 -1.1794 -12.162873406923701 9.624638160333927 19.099049108578487 0 -1 0
1021 341 2 -1.1794 -13.598183286353342 12.126014515361195 17.697339120277483 0 -1 0
1098 366 1 0.5897 -17.236790812393934 13.997178405494122 18.25507427312897 0 -1 0
992 331 1 0.5897 -15.047090181599936 13.178009197210816 17.422712187295033 0 -1 0
1001 334 1 0.5897 -14.746529554335385 10.700166542949606 17.65149369379885 0 -1 0
1000 334 2 -1.1794 -15.318453931937226 9.932981380371661 17.631592846117876 0 -1 0
991 331 2 -1.1794 -15.898949857329612 13.498448872649366 17.126197555540536 0 -1 0
1111 371 2 -1.1794 -16.403325395513164 11.9195624267212 20.087778365513326 0 -1 0
1023 341 1 0.5897 -12.934883039912014 12.346729771745771 17.04340527316585 0 -1 0
981 327 1 0.5897 -12.413006148448854 9.442519456809162 17.236662910060346 0 -1 0
1140 380 1 0.5897 -11.770767262219485 12.525718425530389 20.533085116229525 0 -1 0
1138 380 2 -1.1794 -12.2629609628265 13.059518939949118 19.90934532121399 0 -1 0
1128 376 1 0.5897 -13.832156415969722 13.72346402348322 20.17235818197353 0 -1 0
1022 341 1 0.5897 -13.182919873902076 12.323984358842441 18.53678622829334 0 -1 0
1127 376 1 0.5897 -15.290010076711928 13.316610434909013 20.13994681019189 0 -1 0
1126 376 2 -1.1794 -14.71907807292511 14.082504320740181 20.199179878688405 0 -1 0
1119 373 1 0.5897 -14.896152146770811 11.00021267380539 20.47793933511522 0 -1 0
1117 373 2 -1.1794 -14.090138527148039 10.642409625652629 20.850209062502884 0 -1 0
1044 348 1 0.5897 -12.798438538344751 10.015706293839642 19.69855283980869 0 -1 0
1013 338 1 0.5897 -10.763400206924434 10.47896208493491 18.329438845373772 0 -1 0
1209 403 1 0.5897 -13.125897432258373 5.961466744342527 16.28394368686059 0 0 0
993 331 1 0.5897 -16.134272411673848 12.919247684554584 16.40139648610537 0 -1 0
1010 337 1 0.5897 -10.768396529980842 4.204086190878719 21.433816021592563 0 -1 0
311 104 1 0.5897 -2.7282076543906815 -7.813242613631356 3.5020639355422243 1 1 0
316 106 2 -1.1794 -1.8398149390991563 -4.4440702540588966 1.7573973432131675 1 1 0
317 106 1 0.5897 -1.2175784034402675 -3.71757314053398 1.7241569125338376 1 1 0
243 81 1 0.5897 -0.8587834103331247 -5.291138029735084 5.417157733028793 0 1 0
241 81 2 -1.1794 -0.9930574377430883 -6.231621285229149 5.533190064729241 0 1 0
306 102 1 0.5897 -0.6655480960712676 -7.225659530156356 2.315083361113821 1 1 0
305 102 1 0.5897 -1.4627745341746152 -5.968506638524574 2.5900088813223285 1 1 0
293 98 1 0.5897 -5.035142423178761 -3.711022578494158 2.489111245805444 1 1 0
304 102 2 -1.1794 -1.3058738389258782 -6.852735781049363 2.9210513880955205 1 1 0
318 106 1 0.5897 -2.693850432162842 -4.024215178758719 1.86032807495671 1 1 0
310 104 2 -1.1794 -3.4663258201640863 -8.22500732503714 3.9513598386278908 1 1 0
242 81 1 0.5897 -1.020254443277354 -6.581729323105677 4.64269321711872 0 1 0
3 1 1 0.5897 -1.3431292881366161 -3.2708809781838983 4.538623987549624 0 0 0
95 32 1 0.5897 -5.7689197083868065 -0.7891367497009458 3.496411705240105 1 0 0
26 9 1 0.5897 -4.126707714503804 0.3358931556117213 4.571877957593829 0 0 0
96 32 1 0.5897 -6.033777053339668 -1.866575877306671 4.52634261882202 1 0 0
88 30 2 -1.1794 -4.353924380259787 0.08842565370511224 2.841174460556286 1 0 0
104 35 1 0.5897 -3.4896825762174437 -2.3518971806897815 4.833938335325219 1 0 0
90 30 1 0.5897 -3.6366292480957343 -0.28945481563853903 2.332280421869336 1 0 0
94 32 2 -1.1794 -6.477939132616207 -1.2661431871940811 3.927655060346221 1 0 0
27 9 1 0.5897 -3.8459753434101156 1.5754190586797527 5.394243217209016 0 0 0
25 9 2 -1.1794 -4.012535399647481 0.636289714479128 5.473561998519285 0 0 0
303 101 1 0.5897 -7.247332595275472 -2.1417124305607818 1.1474884621412407 1 1 0
292 98 2 -1.1794 -4.296434621047319 -3.2654351079578063 2.074397488107757 1 1 0
294 98 1 0.5897 -4.69349871358734 -2.7337615599476033 1.3845271421111307 1 1 0
103 35 2 -1.1794 -2.817884146635297 -2.2348042592741377 4.162146546051964 1 0 0
105 35 1 0.5897 -3.2498121799198483 -2.4832746385984246 3.3448392352813667 1 0 0
89 30 1 0.5897 -4.437721168737836 0.9826059947437429 2.5102985373628197 1 0 0
201 67 1 0.5897 0.2863350470510344 -8.347007472095289 0.4100078185145187 1 1 0
309 103 1 0.5897 -2.5780436374331615 -1.3954068768296164 0.3903267075584323 1 1 0
302 101 1 0.5897 -7.499894540994085 -1.9710741649414345 2.630492880283821 1 1 0
199 67 2 -1.1794 0.5389686516296255 -7.7457175338351245 1.1105834843269693 1 1 0
1262 421 1 0.5897 -2.0491257806107264 -5.490681959724687 0.32287198381524457 0 0 1
404 135 1 0.5897 -5.2221615208790615 -3.675310659799882 5.846748056862453 1 0 0
335 112 1 0.5897 -4.809336775699368 -5.401583170779876 9.669196287121535 0 0 0
336 112 1 0.5897 -3.354632468822615 -4.997766012343883 9.556534849328157 0 0 0
334 112 2 -1.1794 -4.235789786612534 -4.635602252615645 9.649592676123246 0 0 0
346 116 2 -1.1794 -1.7967253055388532 -5.827393963052449 9.300203218831859 0 0 0
632 211 1 0.5897 -4.712350271734536 -5.756957168781813 6.77781511262944 1 1 0
356 119 1 0.5897 1.1646407386806228 -6.975321013682427 10.164195758472511 0 0 0
359 120 1 0.5897 -4.589827451406366 -3.069363813788046 8.826714834815405 0 0 0
555 185 1 0.5897 -2.5049170439042268 -6.546303208763663 6.4801214304681904 0 1 0
554 185 1 0.5897 -2.7986211736221343 -6.463351817619008 7.963050631663138 0 1 0
544 182 2 -1.1794 0.4353122071502362 -7.804403538356057 7.31083381020765 0 1 0
553 185 2 -1.1794 -3.2150941425202495 -6.627143745113412 7.116861989141095 0 1 0
546 182 1 0.5897 -0.009766577309116897 -7.239419147765541 6.679218070708758 0 1 0
348 116 1 0.5897 -1.3184913626887536 -6.284503185842766 9.992026527929887 0 0 0
347 116 1 0.5897 -1.1207967771067668 -5.358790517109249 8.810548111430895 0 0 0