LAMMPS (30 Jul 2021)
Processor partition = 1
  using 1 OpenMP thread(s) per MPI task
using multi-threaded neighbor list subroutines
variable        pid world 0 1
variable        phase world IceII IceIII

shell cd ${phase}
shell cd IceIII
include Restart.lmp
echo both
log log.lammps
#include		in.partitions
include		in.temp
variable        temperature equal 102.01
variable	tempDamp equal 100.0
include		in.pressure
variable        pressure equal 2418.8
variable        pressureDamp equal 1000.0 # This is 1 ps
include		in.seed
variable        seed equal 745823

units		real
atom_style	full

read_restart	restart.lmp.${pid}
read_restart	restart.lmp.1
Reading restart file ...
  restart file = 30 Jul 2021, LAMMPS = 30 Jul 2021
  restoring atom style full from restart
  orthogonal box = (0.029662314 -0.021012089 0.0045066045) to (19.970339 20.021013 20.695491)
  4 by 4 by 4 MPI processor grid
  restoring pair style lj/cut/tip4p/long/omp from restart
  restoring bond style harmonic/omp from restart
  restoring angle style harmonic/omp from restart
  972 atoms
  648 bonds
  324 angles
Finding 1-2 1-3 1-4 neighbors ...
  special bond factors lj:    0        0        0       
  special bond factors coul:  0        0        0       
     2 = max # of 1-2 neighbors
     1 = max # of 1-3 neighbors
     1 = max # of 1-4 neighbors
     2 = max # of special neighbors
  special bonds CPU = 0.007 seconds
  read_restart CPU = 0.018 seconds
include 	in.setup
variable	out_freq equal 1000
variable	out_freq2 equal 10000
variable	out_freq3 equal 1000

timestep	2.0

neigh_modify    delay 7 every 1

include		in.tip4p
# This is TIP4P/Ice

# create groups ###
group ox type 2
324 atoms in group ox
group hy type 1
648 atoms in group hy

# set charges - beside manually ###
set group ox charge -1.1794
Setting atom values ...
  324 settings made for charge
set group hy charge 0.5897
Setting atom values ...
  648 settings made for charge

# ### TIP3P Potential Parameters ###
pair_style lj/cut/tip4p/long/omp 2 1 1 1 0.1577 8.5
pair_coeff 1 1*2 0.000 0.000
pair_coeff 2 2 0.21084 3.1668
bond_style  harmonic
bond_coeff  1 450 0.9572
angle_style harmonic
angle_coeff 1 55 104.52
kspace_style pppm/tip4p/omp 1.0e-5
pair_modify tail yes

thermo          ${out_freq}
thermo          1000
thermo_style    custom step temp pe etotal epair emol press lx ly lz vol pxx pyy pzz pxy pxz pyz enthalpy

restart 	${out_freq3} restart.lmp.${pid} restart2.lmp.${pid}
restart 	1000 restart.lmp.${pid} restart2.lmp.${pid}
restart 	1000 restart.lmp.1 restart2.lmp.${pid}
restart 	1000 restart.lmp.1 restart2.lmp.1


include         in.dump
dump            myDump all atom ${out_freq2} dump.water.${pid}
dump            myDump all atom 10000 dump.water.${pid}
dump            myDump all atom 10000 dump.water.1
dump            myDump2 all dcd ${out_freq2} dump.dcd
dump            myDump2 all dcd 10000 dump.dcd
dump_modify     myDump append yes
dump_modify     myDump2 append yes


variable natoms 	equal  "count(all)"                        # NUMBER ATOMS
variable H      	equal  "enthalpy/v_natoms"                 # ENTHALPY-per-atom
variable Vol      	equal  "vol/v_natoms"                 # volume-per-atom
fix AVG all 		ave/time ${out_freq} 1 ${out_freq} v_Vol v_H file vol_enthalpy.dat
fix AVG all 		ave/time 1000 1 ${out_freq} v_Vol v_H file vol_enthalpy.dat
fix AVG all 		ave/time 1000 1 1000 v_Vol v_H file vol_enthalpy.dat


timer           timeout 02:55:00 every 1000
New timer settings: style=normal  mode=nosync  timeout=02:55:00

fix 		1 all shake 1e-6 200 0 b 1 a 1
Finding SHAKE clusters ...
       0 = # of size 2 clusters
       0 = # of size 3 clusters
       0 = # of size 4 clusters
     324 = # of frozen angles
  find clusters CPU = 0.001 seconds
fix             2 all nph aniso ${pressure} ${pressure} ${pressureDamp}
fix             2 all nph aniso 2418.8 ${pressure} ${pressureDamp}
fix             2 all nph aniso 2418.8 2418.8 ${pressureDamp}
fix             2 all nph aniso 2418.8 2418.8 1000
fix             3 all temp/csvr ${temperature} ${temperature} ${tempDamp} ${seed}
fix             3 all temp/csvr 102.01 ${temperature} ${tempDamp} ${seed}
fix             3 all temp/csvr 102.01 102.01 ${tempDamp} ${seed}
fix             3 all temp/csvr 102.01 102.01 100 ${seed}
fix             3 all temp/csvr 102.01 102.01 100 745823


run             250000
PPPM initialization ...
  extracting TIP4P info from pair style
  using 12-bit tables for long-range coulomb (../kspace.cpp:340)
  G vector (1/distance) = 0.37255111
  grid = 24 24 25
  stencil order = 5
  estimated absolute RMS force accuracy = 0.0033909567
  estimated relative force accuracy = 1.0211765e-05
  using double precision FFTW3
  3d grid and FFT values/proc = 2366 288
Last active /omp style is kspace_style pppm/tip4p/omp
Neighbor list info ...
  update every 1 steps, delay 7 steps, check yes
  max neighbors/atom: 2000, page size: 100000
  master list distance cutoff = 10.8154
  ghost atom cutoff = 10.8154
  binsize = 5.4077, bins = 4 4 4
  1 neighbor lists, perpetual/occasional/extra = 1 0 0
  (1) pair lj/cut/tip4p/long/omp, perpetual
      attributes: half, newton on, omp
      pair build: half/bin/newton/omp
      stencil: half/bin/3d
      bin: standard
Setting up Verlet run ...
  Unit style    : real
  Current step  : 1750000
  Time step     : 2
  Walltime left : 2:54:59.90
Per MPI rank memory allocation (min/avg/max) = 9.228 | 9.231 | 9.237 Mbytes
Step Temp PotEng TotEng E_pair E_mol Press Lx Ly Lz Volume Pxx Pyy Pzz Pxy Pxz Pyz Enthalpy 
 1750000    106.34188   -5041.2681   -4836.1788   -5041.2681            0    2673.2524    19.940676    20.042025    20.690985    8269.1839    2324.0738    2354.5213    3341.1622    153.85091   -595.17692    497.23754   -4513.7911 
 1751000    99.205042   -5046.2761   -4854.9508   -5046.2761            0    1894.3872    20.146473    19.963136    20.618473    8292.4774    510.31929    2348.1684     2824.674    128.00805    598.22798    738.51116   -4625.8488 
 1752000    102.40704   -5045.0237   -4847.5231   -5045.0237            0    2077.1597    19.976388    20.077601    20.566967    8248.9567    1692.8062    960.62875    3578.0443   -2.3147255   -104.53295   -47.079184   -4597.6354 
 1753000    101.18232   -5046.1461   -4851.0075   -5046.1461            0    3015.3217    19.955434    19.834455    20.624495    8163.2815    3663.7889    3168.1982    2213.9781   -107.24109   -529.52924    579.90044   -4492.0242 
 1754000    99.343317   -5056.3769    -4864.785   -5056.3769            0    2497.9747    19.851049    20.009192    20.708555    8225.5097    3064.9543    1358.9195    3070.0501    187.17821    633.69085   -721.41828   -4565.1264 
 1755000    101.46137   -5045.3407   -4849.6639   -5045.3407            0    3128.6138    19.971974    19.919642    20.627911    8206.4963    2904.9884    3510.0072    2970.8457    120.15593    8.3749006    670.65583    -4475.221 
 1756000    103.62631   -5041.9188   -4842.0668   -5041.9188            0    2323.4015    19.945677    19.915119    20.752003    8243.1213    2502.5671    1877.1332    2590.5044   -172.93468    657.56427    360.82857   -4562.7533 
 1757000    101.40213   -5045.4714   -4849.9089   -5045.4714            0    2599.7057    19.845179    19.940665    20.804754    8232.9833    3254.0964     2960.981    1584.0398    197.98294   -272.31471   -815.39095   -4537.7632 
 1758000    104.29619   -5049.9271   -4848.7831   -5049.9271            0    2757.7947    19.964506    19.906263    20.710118    8230.5882    2398.8745    4013.5287    1860.9808   -158.88254    636.44912   -110.87596   -4517.7521 
 1759000    106.20474   -5042.0413   -4837.2165   -5042.0413            0    2622.3209    19.813902    19.977559    20.641099    8170.4361    2798.8724     2674.626    2393.4642   -276.97577    586.96123    1137.7859   -4524.7475 
 1760000    103.81042   -5044.0247   -4843.8176   -5044.0247            0    1612.1223    20.077735    19.927679    20.707041    8284.9423    1133.8651    2414.2051    1288.2965    117.05555    1246.8153    -262.6545   -4649.0291 
 1761000    102.85308   -5047.1495   -4848.7887   -5047.1495            0    2777.8652    19.941759    20.074819    20.501072    8207.1368    2277.7738    2667.6977    3388.1242   -395.53431    166.82862    595.48406   -4516.2986 
 1762000    105.86519    -5038.006   -4833.8361    -5038.006            0    1598.7703    20.029425    19.939573    20.723211    8276.3983    1613.5915    1555.9656    1626.7538    202.92071   -113.78554   -145.65337   -4640.8601 
 1763000     105.2374   -5037.2644   -4834.3052   -5037.2644            0    2257.4052    19.925997    20.010859    20.654857    8235.8415     2887.372    1103.4096    2781.4338   -276.42987   -117.14893   -477.16165   -4563.1653 
 1764000     98.62072   -5046.1991   -4856.0008   -5046.1991            0    2611.3411    20.028764    19.862555    20.746925     8253.592    1172.4244    4675.3178    1986.2811    88.346416   -447.99515   -886.10452   -4541.6732 
 1765000    98.336203   -5041.9966    -4852.347   -5041.9966            0    3024.8858     19.97218    19.928243    20.645758    8217.2272    2369.3767    3989.6484    2715.6323   -151.44868    605.12846   -103.02303   -4489.8452 
 1766000    103.01027   -5048.0701   -4849.4061   -5048.0701            0    1711.9451    19.988911    19.876971    20.759166    8248.0114    1348.7487    1813.2406     1973.846   -303.55837   -237.57191   -149.52164   -4643.4783 
 1767000    100.98834   -5045.1181   -4850.3536   -5045.1181            0    3224.1377    20.067582    19.957411    20.649993    8270.2597    3398.3911    2495.3166    3778.7054    47.126774     445.5689   -97.691481   -4461.4799 
 1768000    95.822898   -5043.8607   -4859.0582   -5043.8607            0    2489.5138    19.815574    20.003044    20.772258    8233.5371    3016.6725    2253.7758    2198.0932   -56.551337   -407.45257    94.554767   -4560.1231 
 1769000    96.739676   -5039.1322   -4852.5616   -5039.1322            0     2229.452    20.074191    19.778169     20.86755    8285.0587    2112.4889    2427.5866    2148.2805   -253.42722    207.18069   -242.60454   -4583.1789 
 1770000    100.40876   -5044.0815   -4850.4347   -5044.0815            0    2812.0304    19.844988    19.959813    20.771284    8227.5523    2467.0407    2905.8677    3063.1828    -114.2152   -543.04825    292.47613    -4513.018 
 1771000    97.821077   -5050.6686   -4862.0125   -5050.6686            0    2462.4042    19.879519    19.861966    20.925817     8262.482    3670.7156    2178.4401    1538.0569    52.269258    394.40789    643.84893   -4565.2932 
 1772000    102.80948   -5045.1952   -4846.9185   -5045.1952            0    1999.5225    19.900725    19.821684    20.887696    8239.4836    1591.2439    3149.7499    1257.5738     -57.0422   -322.01741    216.38269    -4606.647 
 1773000    101.67863   -5059.2983   -4863.2025   -5059.2983            0    1512.2729     19.97212    19.916082    20.889086    8308.9761    2431.2736    1156.3643    949.18091   -470.65941    195.69118    110.56557   -4679.9485 
 1774000    101.32768   -5029.8321   -4834.4132   -5029.8321            0    2405.9526    19.971817    19.837833    20.914805    8286.3949    2343.9741    3110.9929    1762.8906    -220.4567    402.65616    1572.2923   -4543.6572 
 1775000    104.73081   -5040.4362    -4838.454   -5040.4362            0    3525.0989    20.016836    19.672945    20.862194    8215.3257    2471.7975    4321.1694    3782.3298  0.067884463    316.60666    229.40929   -4416.1045 
 1776000    106.08892   -5040.2492   -4835.6478   -5040.2492            0    3115.9345    19.903393      19.9781    20.681017    8223.4336    3188.9361    2757.6688    3401.1987    63.092836   -76.912951   -15.550728   -4461.9527 
 1777000    104.77499   -5039.8853    -4837.818   -5039.8853            0    1854.3379    20.023051    19.906769     20.71572    8257.1671    992.77108    1846.0758    2724.1668   -682.72315    10.968723    256.08345   -4614.5143 
 1778000    102.89319   -5054.8298   -4856.3916   -5054.8298            0    2144.1574    19.957541     19.99104    20.663479    8244.1499    2854.4187    1379.2248    2198.8287    85.827655     32.83707    215.63973   -4598.5942 
 1779000    100.62325   -5041.6554    -4847.595   -5041.6554            0    1808.4105    20.047747     19.89586    20.757182    8279.3587    681.12352    2417.1441     2326.964    539.14765   -160.98125    227.35298   -4629.2367 
 1780000    102.98053   -5043.3429   -4844.7363   -5043.3429            0    2173.6567    20.055457    19.833945    20.747435    8252.8903    599.94864    4370.0384    1550.9832   -466.43242   -236.49592   -517.31656   -4583.1151 
 1781000    105.69651   -5043.3622   -4839.5176   -5043.3622            0    1845.7848    19.901811     20.00356    20.841866    8297.2948    2569.4749    1328.3238    1639.5557   -234.15008    334.03305   -584.84175   -4616.1637 
 1782000    103.56778   -5047.1363   -4847.3972   -5047.1363            0    2164.7548    19.986613    19.893641    20.848422    8289.4681    2189.4199      2585.06    1719.7846    55.088539    -390.7743   -476.31639   -4585.6926 
 1783000    97.858568   -5034.8746   -4846.1461   -5034.8746            0    3115.6692    19.878478    19.932753    20.786935    8236.4652    2951.7322    3486.7163    2908.5591   -117.22771    297.20041    19.306167   -4471.8907 
 1784000    100.32205   -5053.3475    -4859.868   -5053.3475            0    1726.2587    20.090605    19.854074    20.779432    8288.5075     2185.845    1438.3642     1554.567    295.62034   -455.50517    584.93145   -4651.1989 
 1785000    100.22041   -5064.0563   -4870.7728   -5064.0563            0    2165.7873    19.863264    19.969109    20.787795    8245.5141    1731.1164    2271.6157    2494.6299   -8.1031491   -528.75904   -199.28896   -4610.3318 
 1786000     100.6204   -5056.4482   -4862.3932   -5056.4482            0     1826.168    19.986906    19.898776    20.781434    8265.0874    2808.5624    1227.9138    1442.0279    150.34057    1251.9458    198.85937   -4642.2709 
 1787000    101.19195   -5047.4439   -4852.2867   -5047.4439            0    1770.0037    20.027943    19.960383    20.697092    8273.9813    1208.9271    2009.5591    2091.5248    282.35369    697.58376    25.826827   -4638.7047 
 1788000    103.00931   -5040.4674   -4841.8053   -5040.4674            0    2822.4448    20.065008    19.954562    20.525208    8218.0561    2433.3875    3184.7704    2849.1764    26.168208    135.28471    114.49671   -4503.5299 
 1789000    101.19119    -5051.901   -4856.7453    -5051.901            0    2731.0595    20.073451    19.929854    20.533356    8214.5938    2264.8655    2492.7103    3435.6028   -168.32548    -212.1029    34.578587   -4529.5605 
 1790000    99.726497     -5047.48    -4855.149     -5047.48            0    2507.8088     19.99905    19.932252    20.731205    8263.9992    2094.7235    2314.5389    3114.1639    -451.4331   -90.243726    205.10377    -4552.903 
 1791000    101.98873   -5046.5784   -4849.8845   -5046.5784            0    2400.4894    19.952079    19.980967    20.805177    8294.2298    2539.6489    2847.5329    1814.2864   -286.67791   -394.44337    996.59627   -4559.5145 
 1792000    102.69796   -5055.8725   -4857.8108   -5055.8725            0     1422.077    20.059633     19.85495    20.897088    8322.9553    1938.2494    1241.3798    1086.6016    150.35836    147.90707    439.90448   -4685.1966 
 1793000    101.39231   -5039.8586    -4844.315   -5039.8586            0    1697.8719    20.005508    19.985468    20.679442    8268.0429    2155.6084    1256.4357    1681.5717   -143.86735   -119.67628     -247.585   -4639.5841 
 1794000    99.472016    -5052.038   -4860.1978    -5052.038            0    3373.2955    19.983318    19.898892    20.532094    8164.5027    1645.1963    4152.7867    4321.9037   -422.49532   -104.26846    499.72587   -4458.5365 
 1795000    95.791416   -5050.0141   -4865.2723   -5050.0141            0    2575.0864    19.952205    19.995762    20.663667    8243.9674    3145.8978    2121.7239    2457.6374   -210.97875    1130.5723   -553.13401   -4555.6702 
 1796000    100.53657   -5048.4457   -4854.5525   -5048.4457            0    2815.5757    19.947395    20.010312    20.624319    8232.2713    2911.1933    2165.0833    3370.4504   -30.033401    486.53853    412.99124   -4516.5166 
 1797000    103.26641   -5051.7427   -4852.5847   -5051.7427            0    2204.3601    20.088428    19.849625    20.641114    8230.5978    1453.4456    2510.4143    2649.2204   -131.46733    141.26431   -274.36219   -4587.9847 
 1798000    93.695171    -5040.442    -4859.743    -5040.442            0    3128.4301    19.811384    20.003349    20.713973    8208.8238    3308.0257    2522.3621    3554.9024   -88.558897    572.50211    283.95346   -4485.2159 
 1799000    103.65731   -5045.7334   -4845.8215   -5045.7334            0    2920.8184     20.00864    19.828099    20.824587    8261.8068    1912.9794    3523.0441    3326.4316   -427.84388    214.16993   -627.47923   -4493.8922 
 1800000    100.27892   -5054.6964   -4861.3001   -5054.6964            0    2725.1173    19.800477     19.96858    20.886278    8258.1714    4309.0899    1954.1903    1912.0716     218.8266   -179.16466   -1060.2298   -4533.0953 
 1801000    107.61585   -5033.5842   -4826.0379   -5033.5842            0    2150.2209    19.898509    19.945492    20.841235    8271.5852    2729.4735    1928.0352    1793.1541     273.0864    349.42006   -333.85674   -4566.6512 
 1802000    96.951334   -5046.5546   -4859.5758   -5046.5546            0    1593.1095    19.920829    20.002039     20.79964    8287.7661    1298.9247    1595.4783    1884.9256   -352.32418   -269.36359   -1030.4988   -4667.0189 
 1803000    99.039911   -5054.9851   -4863.9783   -5054.9851            0    2825.9703    19.917523    19.899883    20.766307    8230.8581    2605.3063    3232.4196     2640.185    92.414061    131.04656   -14.483387   -4524.7527 
 1804000    102.10739   -5038.3895   -4841.4668   -5038.3895            0    2890.6708    19.936752     19.88187    20.779572    8236.6052    3545.5459    2111.3252    3015.1414   -213.15247   -782.01461    259.91647   -4494.2324 
 1805000     105.4879   -5053.0687   -4849.6264   -5053.0687            0    3277.4415    19.759615     19.90928    20.877834     8213.334    3842.8698     3337.911    2651.5437    63.783967   -408.28401    36.563977   -4457.0445 
 1806000    99.116895   -5027.2993   -4836.1441   -5027.2993            0    1864.6659    19.981572    19.961309    20.806769    8298.9533    2552.9423    972.45996    2068.5954    -249.1231    309.13454    267.50021   -4610.4604 
 1807000    95.464825   -5051.5681   -4867.4562   -5051.5681            0    1243.9424     20.00725    19.956502    20.775138    8294.9873    607.98041    2190.4136    933.43317   -323.54177   -256.90278   -402.31026   -4716.9716 
 1808000    103.65458   -5049.6377   -4849.7311   -5049.6377            0    3354.5143    19.917727    19.885213    20.794387    8235.9964    1928.5008    4483.4731     3651.569   -548.81214    963.60954    239.67786   -4446.8085 
 1809000    105.74042   -5056.5117   -4852.5824   -5056.5117            0    2564.1771    19.893176    19.802166    20.916714    8239.6787    2364.6528    3957.2778    1370.6005   -282.26422    99.314958   -1308.8945   -4544.4523 
 1810000    106.43361   -5058.4345   -4853.1683   -5058.4345            0    2068.1905    19.986101    19.896862    20.784129    8265.0309    1738.0023     2074.283    2392.2861   -124.36201   -329.59935   -731.00305   -4603.8748 
 1811000    103.06843     -5045.31   -4846.5339     -5045.31            0    1987.4696    19.969034     19.87737    20.882193    8288.8081    1978.5589    2538.2439    1445.6059   -276.69084    333.48782   -1205.1736   -4606.2811 
 1812000    107.09495   -5043.5344   -4836.9928   -5043.5344            0    1191.2382    19.921079    20.048007    20.839787    8322.9508    2025.5543   -110.75995    1658.9204   -481.12086   -277.82138     31.65846   -4692.3983 
 1813000    100.41273   -5032.1627   -4838.5083   -5032.1627            0    2506.4704    19.906567    19.808403    20.928686    8252.5431     3821.025    1968.2649    1730.1215    -125.0272   -514.41677   -229.64486   -4536.8423 
 1814000    103.22467   -5050.1814   -4851.1039   -5050.1814            0    1900.4223    19.997202    19.897298    20.833127    8289.2988    565.86107    2372.9225    2762.4833   -259.22557   -1132.2617    97.019206   -4621.3601 
 1815000    107.78198   -5062.1432   -4854.2766   -5062.1432            0    2487.3755    19.877091    19.813672    20.894956    8229.2308    3142.7249    2547.7868    1771.6148   -225.93415    139.95701    579.40592   -4555.7545 
 1816000    105.32424   -5037.3165   -4834.1898   -5037.3165            0    1612.7719    19.942151    19.891307    20.909583    8294.3183    512.46124    3476.7962    849.05826   -107.15374    515.80385   -489.18791   -4639.1023 
 1817000    100.62303   -5052.8514   -4858.7915   -5052.8514            0    2421.2092    19.919568    19.972745    20.796842    8273.9915    2177.9811    2458.9146     2626.732    9.2042665    57.397695   -437.68056   -4566.6298 
 1818000    97.132448   -5041.5572   -4854.2291   -5041.5572            0    2438.9394     19.97657    19.814301    21.002633    8313.2994    3252.4224    3362.5415    701.85445    482.88033    128.18545     -518.405   -4558.5298 
 1819000    93.224819   -5044.9558   -4865.1639   -5044.9558            0    2495.0041    19.989662    19.924547    20.839508    8300.0627    1957.2273    2473.9367    3053.8482   -134.91958    814.21367    152.93549   -4563.1489 
 1820000    103.79498   -5045.9685   -4845.7912   -5045.9685            0     2954.557    19.844062    19.925308    20.763354    8209.8108    3085.2762    3264.8014    2513.5934    89.834405   -687.08789   -558.31995   -4492.0371 
 1821000    106.69855   -5055.8135   -4850.0364   -5055.8135            0    1664.8048    20.004285    19.944933    20.773909      8288.46    1966.6922    1333.7203     1694.002      93.3172    462.07823    1097.4865   -4648.7969 
 1822000    110.97479   -5044.9629   -4830.9387   -5044.9629            0    2218.5617    19.912335    19.819285    20.868618    8235.7629    2868.6088     1835.889    1951.1872    38.411531   -257.93617   -25.488155   -4564.4669 
 1823000    97.313271   -5053.3103   -4865.6335   -5053.3103            0     1228.948    20.049781    20.011754    20.609486    8269.1705    634.26063    788.61107    2263.9723    203.07021   -142.43981   -244.43817   -4717.4256 
 1824000    99.752587   -5053.4118   -4861.0306   -5053.4118            0    2265.3455    19.973561    19.832251    20.738332    8214.8821    1956.7502    1944.0519    2895.2344    273.97017   -38.086061   -634.30425   -4589.6294 
 1825000    100.34973   -5052.7209    -4859.188   -5052.7209            0     2010.652    19.956327    20.016498    20.673576    8258.1793    2182.7343    1328.5437    2520.6781   -307.32842    502.18053    200.39765   -4617.0309 
 1826000    104.45677   -5055.2522   -4853.7985   -5055.2522            0    3263.5756    19.943501    19.994857    20.693402    8251.8551     3886.009    2273.0415    3631.6764    39.692959   -477.98158   -920.53684    -4461.044 
 1827000    99.612825   -5063.6587    -4871.547   -5063.6587            0    1869.5128    20.007775    20.013808    20.632297    8261.8273    2574.7623     762.6875    2271.0884   -187.81242   -901.48962   -172.89077   -4646.2889 
 1828000    107.65651   -5045.0798   -4837.4551   -5045.0798            0    1362.4915    20.064839    20.017372    20.665925    8300.3729    1739.2971     229.9109    2118.2665   -406.84835    225.36364   -157.49066   -4672.5222 
 1829000    99.064999   -5051.4201   -4860.3649   -5051.4201            0    2436.0396    19.922871     19.94854    20.800451    8266.7688    2648.4085    1804.0479    2855.6623   -20.848559    166.11186    1610.0068   -4566.6703 
 1830000    101.14666    -5039.207   -4844.1371    -5039.207            0    2453.0863    19.978679    19.873608    20.754879    8240.6925    1699.6584     3325.828    2333.7724    233.81542   -343.10167   -12.676574   -4549.3202 
 1831000    100.74162   -5042.6241   -4848.3354   -5042.6241            0     2944.456    19.987996    19.863827    20.735276    8232.6943    2252.9091     3877.386    2703.0728    41.896719    86.327284   -622.83201   -4494.8081 
 1832000    98.573119   -5055.0324   -4864.9259   -5055.0324            0     2284.745    19.985806    19.928982    20.784295    8278.3178    4102.8905    1019.0309    1732.3137   -391.94156    548.98101    423.00665   -4589.0869 
 1833000    103.11947   -5043.2833   -4844.4088   -5043.2833            0    3596.0473    20.001053    19.781162    20.777915    8220.6589    3365.0002    4075.4862    3347.6557   -173.13072    48.285173   -274.76803   -4413.2791 
 1834000    105.02575   -5040.4551   -4837.9041   -5040.4551            0    2342.4316     19.96084    19.932848    20.846744    8294.4272    3080.1994    2852.0011    1095.0942   -273.90326    402.44766   -795.30608   -4554.5502 
 1835000    101.12739   -5054.3707    -4859.338   -5054.3707            0    1202.3007    19.992511     19.89196    20.898378    8311.0809    818.16614    1633.6696    1155.0663    120.26166    -360.8759   -702.45068   -4713.6088 
 1836000    102.80542   -5054.2628   -4855.9939   -5054.2628            0    1671.8408     19.89318    19.839666    20.891537    8245.3473    1961.1978    1822.2869    1232.0378   -521.40984    454.91386    1.6504114   -4654.9552 
 1837000    100.63521    -5050.763   -4856.6795    -5050.763            0    2458.6562    19.932206    19.849087     20.83305    8242.3061     2745.888    2932.5537    1697.5271   -27.466644   -359.57474    16.850221   -4561.1353 
 1838000    100.87064   -5046.8253   -4852.2878   -5046.8253            0    1272.4472    20.027101     19.82784      20.9347    8313.0466    984.95066     1443.716    1388.6749   -427.68234   -359.89866    504.57608   -4698.0197 
 1839000    97.217784   -5058.5666    -4871.074   -5058.5666            0    1235.6413    19.950091    19.984286    20.776728     8283.439    1808.2713    1212.9394    685.71321    102.49057    183.24631    157.93455   -4721.8017 
 1840000     99.43886   -5045.6356   -4853.8593   -5045.6356            0    1117.9129    19.985875    19.861247    20.836431    8270.9049    1325.9152    1716.5819    311.24167   -60.616853    647.24486   -235.12568   -4719.0137 
 1841000    98.092379   -5047.0397   -4857.8603   -5047.0397            0    2968.8284    20.155225    19.818371    20.659073    8252.1372    761.36039    4644.9044    3500.2203   -465.02339      665.692    636.65239   -4500.5649 
 1842000    101.96451    -5052.107   -4855.4599    -5052.107            0    1499.1186    20.007443    19.918837    20.756477     8271.975    2159.2833    926.15902    1411.9134   -5.9715492   -146.82382    41.988847   -4674.6088 
 1843000    107.77377   -5048.8439   -4840.9931   -5048.8439            0    2408.9634    19.924661    19.978683    20.605986    8202.5936    3438.9397    1355.0368    2432.9135   -372.88498    125.05944   -907.35032   -4552.8174 
 1844000    98.722618   -5041.8594   -4851.4646   -5041.8594            0    2955.2878    20.015922    19.898761    20.728561    8256.0211    2388.4411    3129.7408    3347.6816   -600.40034    174.55404    377.26793   -4495.6314 
 1845000    95.997617   -5052.1097   -4866.9702   -5052.1097            0    2742.8224    19.964742    19.901069    20.686499    8219.1538    3417.5759    2285.1853    2525.7059   -48.448382    377.96733    95.512191   -4538.1938 
 1846000    103.96878   -5044.1922   -4843.6796   -5044.1922            0    4015.2984    19.935238    20.025699    20.533122    8197.1729    3537.1036    4042.6808    4466.1109    -17.94343     525.8362    147.01115   -4363.6613 
 1847000    101.91806   -5048.0114   -4851.4538   -5048.0114            0     3738.465    19.924823    20.001056    20.619018    8217.0396    3864.7657     2695.504    4655.1253   -107.50131    314.95129    738.62855   -4403.4471 
 1848000    101.61895   -5049.6077    -4853.627   -5049.6077            0    2297.4892    20.030556    19.947181    20.585499    8225.0007    2332.4652    1539.6278    3020.3746   -365.33377    292.10913    53.951864   -4578.0358 
 1849000      100.147   -5049.6362   -4856.4943   -5049.6362            0    2203.2435    19.933902    20.118476    20.653613    8282.9197     3754.816     1238.123    1616.7916   -308.40824    3.6684314    218.86147   -4590.3471 
 1850000    99.639135   -5044.0442   -4851.8818   -5044.0442            0    2361.8247    20.050251    19.902056    20.707982    8263.3383    1781.0951    2194.1755    3110.2036    78.537823    489.92879    337.43764   -4567.2528 
 1851000    98.069404   -5056.6642   -4867.5291   -5056.6642            0    3312.3671    20.001078    19.840553    20.756467    8236.8394    4910.4382    1910.5659    3116.0971   -127.63345   -1324.5934    199.04769   -4469.6281 
 1852000    103.48768   -5048.4091   -4848.8244   -5048.4091            0    1846.8568    20.012788    19.847439     20.85056    8281.8962    2550.0415    2075.6408    914.88802     367.7877   -273.68462     177.4081   -4625.7556 
 1853000    102.23699   -5041.3956   -4844.2229   -5041.3956            0    1955.6412    19.993207     19.90217    20.861543    8300.9792     1533.578    1690.6747    2642.6709    27.876252   -1326.1594   -183.92703   -4607.4705 
 1854000    104.39112   -5048.5334   -4847.2064   -5048.5334            0    1276.9214    19.933657    19.926853    20.892792    8298.9312    1205.8524    910.57119    1714.3406   -21.533769   -125.35715   -90.360001   -4692.6588 
 1855000    106.91482   -5040.6649   -4834.4707   -5040.6649            0    2638.2854    20.052351    19.934053    20.624221    8244.0092    2230.1259    3048.8914    2635.8389   -17.400819   -22.166033   -168.83458   -4517.2685 
 1856000    95.029661    -5044.835   -4861.5623    -5044.835            0    3218.2925    19.929402    20.003011    20.655005    8234.0773    3256.1588    2835.6508    3563.0679    201.50627   -172.32914    248.33903   -4475.0918 
 1857000    99.392453    -5041.473   -4849.7863    -5041.473            0    1762.0759    20.075004    19.895307     20.63002    8239.5963    2574.2985    1115.8916    1596.0374   -371.22327    332.68549   -517.89626   -4638.0446 
 1858000    104.36536   -5044.7266   -4843.4492   -5044.7266            0     2577.226    20.014046    20.022401    20.610772    8259.3395    2032.1358    2617.7195    3081.8226    255.37371    850.22466     227.6074    -4533.012 
 1859000    98.725877   -5036.2662    -4845.865   -5036.2662            0    3570.2806    20.004924    19.850495    20.572447    8169.4759    2708.2815    3699.1638    4303.3964   -30.552551    213.87259   -812.08647   -4420.4896 
 1860000    101.83141   -5034.7427   -4838.3522   -5034.7427            0    3543.5434     19.93253    19.810726    20.749742    8193.6145     3630.533    4466.2896    2533.8076    386.21896    385.89735   -673.38624   -4414.9149 
 1861000    106.49007   -5044.1132   -4838.7382   -5044.1132            0    2592.4358    19.905966    20.009203    20.770931    8273.1143    3120.0097     2241.891    2415.4069   -168.86309    97.699979    457.77052   -4525.9481 
 1862000     105.0786   -5048.5814   -4845.9285   -5048.5814            0    2301.4524    20.033545    19.950086    20.734497    8286.9759    2090.1199    2019.3598    2794.8776    181.20888     449.7081   -125.87088   -4567.7817 
 1863000    99.351261   -5054.7334   -4863.1262   -5054.7334            0    1628.1567    19.931681    19.914746    20.874288    8285.7218    1572.6542    2092.0039    1219.8121    67.862576   -391.34422   -441.84171   -4666.3818 
 1864000    101.93997   -5044.9229   -4848.3231   -5044.9229            0    1751.0845    19.905977    19.961598     20.82201     8273.732    1541.7346    2654.8585    1056.6605   -341.28554   -338.14179    626.51037   -4637.0304 
 1865000    101.69184   -5046.1859   -4850.0646   -5046.1859            0    2256.3565     19.93048    19.771187    21.062435    8299.6363    2597.7946     2813.373     1357.902   -65.847461    201.33664   -168.27506   -4576.9514 
 1866000    96.206101   -5048.6046   -4863.0631   -5048.6046            0    2194.8781    19.949243    19.845839     20.93291    8287.5372    3522.2871    1897.5802    1164.7671    181.25985    448.89176    6.3674304   -4597.7786 
 1867000    98.650682    -5052.177   -4861.9209    -5052.177            0    3001.5955    19.962227    19.942617    20.700522    8240.8578     3288.409    2374.4775    3341.8999    -183.1471    363.35968    649.63802   -4501.1757 
 1868000    97.635873   -5048.3116   -4860.0126   -5048.3116            0    947.21382    19.994894    20.017453     20.79759    8324.1702    974.09562    429.90806    1437.6378    -232.7924    174.52747    748.18262   -4745.0213 
 1869000    97.251826   -5049.1232   -4861.5649   -5049.1232            0     1996.561    19.858385    19.943236    20.836453    8252.0786      2257.45    1928.6319    1803.6011   -9.8028815    117.92753   -180.10005   -4621.2826 
 1870000    102.26031   -5047.1047   -4849.8871   -5047.1047            0    3664.0998    20.023907    19.768879    20.786742    8228.4357    3455.4864    4188.2888    3348.5241    57.931008   -524.20283     138.7963    -4410.183 
 1871000    94.888875   -5050.2355   -4867.2343   -5050.2355            0     914.4873    20.047479    19.869045    20.821718    8293.7954    215.92252    1695.1073    832.43214    29.779658    -16.41673    263.52573   -4756.6211 
 1872000    106.90618   -5048.8978   -4842.7203   -5048.8978            0    1980.7376    19.975635    19.881277    20.778883    8252.1493    1537.4014    2407.0545    1997.7568    -553.3052   -822.35843    38.552761   -4604.3402 
 1873000    106.61566   -5055.7888   -4850.1715   -5055.7888            0    2949.2848    20.050234    19.845258    20.630535    8208.9326    1594.5135    3585.1264    3668.2146    613.18188   -99.150863   -455.92134   -4497.0865 
 1874000    102.61004   -5045.8547   -4847.9627   -5045.8547            0    2078.1053    19.942768     20.02956    20.620822    8236.8815    3369.0776    342.75326    2522.4852    45.485112   -164.36743    -908.7695   -4598.3272 
 1875000    104.95217   -5041.5158   -4839.1067   -5041.5158            0    2609.6821    19.965811    19.903909    20.722432    8235.0466    2845.7247    2526.6054    2456.7161    1.4404915    -351.2715    558.97863   -4525.6847 
 1876000    96.153232   -5050.5318   -4865.0922   -5050.5318            0    2509.9383    19.778978    20.110737    20.726514    8244.3819    3098.2122     2423.965    2007.6377    -19.68073    -145.4315    166.62244   -4563.3076 
 1877000    102.42482   -5054.1269    -4856.592   -5054.1269            0    1793.0051     20.00374    19.909482    20.712875    8249.1945    1259.7366    1692.1432    2427.1355   -224.15945    766.63047   -75.531376   -4640.8826 
 1878000    104.35802   -5057.9226   -4856.6593   -5057.9226            0    2086.2515    20.051446    19.955796    20.561629    8227.5832    2116.9204    1922.1003    2219.7339    276.40263    65.134926   -688.04755   -4606.3282 
 1879000    109.78344   -5045.1532   -4833.4266   -5045.1532            0    2405.3328    19.850317    19.968758    20.739488    8220.8463    3277.6405    2334.8848    1603.4731    144.64097   -846.03533   -437.21054   -4545.0449 
 1880000    98.570998   -5057.5993   -4867.4969   -5057.5993            0     1798.377    20.111197     19.77108    20.743395    8247.9907    1.2649418    4256.6348    1137.2312    -243.2735    495.57924    603.56092   -4651.1728 
 1881000    96.231349    -5053.329   -4867.7388    -5053.329            0    2236.2619    19.825859    19.970743    20.872437    8264.1726     3365.103    2091.8876    1251.7952   -305.28923   -520.42663   -304.90634   -4598.2145 
 1882000    99.851385   -5030.3669   -4837.7951   -5030.3669            0    1895.6575    19.996515    19.840346    20.913726     8297.265     2148.892    2605.3128    932.76777    298.53357   -327.14493   -664.70217   -4608.4071 
 1883000    106.26393   -5047.2759    -4842.337   -5047.2759            0    2414.8593    19.977003    19.970968    20.748329    8277.7552    2877.1169    2001.5117    2365.9494   -118.54092    400.97998   -393.19239    -4550.809 
 1884000    97.748056   -5044.8622   -4856.3469   -5044.8622            0    3128.7025    19.944995    19.924868    20.581373    8179.0664    3668.5524    3377.8097    2339.7456   -513.96046    580.94033    539.29569   -4483.1449 
 1885000    108.15246   -5063.1362   -4854.5551   -5063.1362            0    1957.5051     19.94113    19.984981    20.639691    8225.3938    2425.4937    1054.4618    2392.5599   -177.30294    218.66502    32.819462   -4619.7349 
 1886000      105.511   -5049.6763   -4846.1895   -5049.6763            0    2596.1778    20.012398    20.010678    20.522932    8218.6474    958.88949    3493.8783    3335.7658   -157.20347    133.51495    45.570033   -4535.0102 
 1887000    101.04226   -5052.0286   -4857.1601   -5052.0286            0     3252.613     19.85393    19.963838    20.672006    8193.5694    4474.2841    2569.8218     2713.733    164.03936   -141.93447     187.0974   -4468.4897 
 1888000    98.873118   -5044.3941    -4853.709   -5044.3941            0    2405.1586    19.803853    19.962135    20.869023    8250.0924    2609.7781    2304.1946    2301.5032   -415.70039     619.9454    615.52104   -4564.3224 
 1889000    101.25374   -5063.5212   -4868.2448   -5063.5212            0    3007.1726    19.952344    19.973609    20.634497     8223.266       4210.8    1848.0566    2962.6611    503.37281    185.96833    679.62451   -4507.6009 
 1890000    99.780442   -5039.0749   -4846.6399   -5039.0749            0    3244.6463    19.998839    19.971028    20.611896     8232.337    3868.3437    2627.4731    3238.1219   -253.31534   -881.18266    586.28758   -4457.0871 
 1891000    102.00628   -5051.6183   -4854.8906   -5051.6183            0    1199.7249    20.005316    19.904731    20.744077    8260.3004    411.43202    1524.3052    1663.4374    68.559767    64.123038   -400.55583   -4710.3622 
 1892000    100.34352   -5044.8319    -4851.311   -5044.8319            0    2362.5497    20.002193    19.974913    20.613916    8236.1266    725.86407    3369.6535    2992.1314    30.819688    999.60834    751.49103   -4567.5323 
 1893000    102.91661   -5057.2659   -4858.7826   -5057.2659            0    3170.7571    20.027212    19.923873      20.6454    8237.9197    2630.8481    2519.3456    4362.0776    -306.3598    473.43245      143.861   -4477.8427 
 1894000    105.76456   -5056.9681   -4852.9923   -5056.9681            0    1481.3462    19.941838    19.880159    20.854773    8267.8103    1931.0997    1904.4474    608.49133     93.67854    329.40011   -204.65188   -4674.3752 
 1895000    101.20832   -5046.4088     -4851.22   -5046.4088            0    1658.9628    20.074326     19.91189    20.632157    8247.0398    1796.9762    1372.4407    1807.4715   -283.73186    684.74436    135.38937   -4651.6889 
 1896000    98.856681   -5050.1111   -4859.4577   -5050.1111            0    2185.6423    20.092385    19.924158    20.627484    8257.6743     3377.531    1329.7175    1849.6782   -304.05915   -570.22296   -466.90971   -4596.2414 
 1897000    100.19567   -5059.2291   -4865.9933   -5059.2291            0    1901.8982    20.045937    19.891753     20.75716    8276.8932    2099.1928     1500.469    2106.0327    548.69351    98.629429   -300.21223   -4636.4152 
 1898000    103.06356   -5058.7089   -4859.9422   -5058.7089            0    2488.3944    20.076829    19.896315    20.643726     8246.238    1146.3652    3805.0953    2513.7226   -89.319086    985.81895    1662.1389   -4560.6806 
 1899000    104.64147   -5048.2822   -4846.4723   -5048.2822            0    1194.6227    20.070082    19.963315    20.624696    8263.6016    399.01546     682.5522    2502.3006  -0.44583613    393.81302   -500.06653    -4702.501 
 1900000    98.376297   -5044.3204   -4854.5935   -5044.3204            0     2152.367     20.05498    19.940329    20.618303    8245.3191    2344.6061    1797.7763    2314.7187    -71.71427   -522.50761    604.01893   -4595.7723 
 1901000     108.1317   -5044.6636   -4836.1225   -5044.6636            0    3381.3725    20.073218    19.768175    20.723583    8223.3433    3143.9233    3210.4322     3789.762    68.883393   -762.85594    228.58816   -4430.5978 
 1902000    104.19075   -5045.1847   -4844.2441   -5045.1847            0    1845.8057    19.975025    19.950364    20.747351    8268.0063    2248.9818    1516.3676    1772.0676   -222.23239    1651.9363   -11.693201   -4621.6761 
 1903000    102.34061   -5051.8395    -4854.467   -5051.8395            0    1714.8156    19.997287    19.969396    20.680969    8258.6087    1605.7285    1546.1309    1992.5875   -750.31381    432.15332    225.40517   -4647.9289 
 1904000    103.76795   -5053.9969   -4853.8717   -5053.9969            0    2232.6602    19.975848    19.903052    20.832851    8282.7318    2640.9715    2000.5373    2056.4719   -219.76209    199.53151    34.552404   -4584.1771 
 1905000    100.96229   -5049.8863    -4855.172   -5049.8863            0    1620.2765     20.01848     19.81148    20.897076    8287.6906    1987.5754    1720.7738    1152.4804    201.44823   -57.206134   -80.083479   -4659.3333 
 1906000    100.08357   -5056.1839   -4863.1644   -5056.1839            0    2560.3774    20.029614    19.859192    20.754594    8255.5954    1854.0967      3513.92    2313.1155     26.86479   -62.779407      -746.86   -4554.8965 
 1907000    103.71682   -5050.3238   -4850.2972   -5050.3238            0    3472.5069    19.886824    19.865784    20.790885    8213.7998    4355.3921    2998.6028    3063.5258   -281.36624   -87.422687    131.78965   -4434.3261 
 1908000    97.880932   -5056.4267    -4867.655   -5056.4267            0    1724.7323    19.941076    19.906724    20.884365    8290.2892    1915.7775    2103.2136    1155.2058   -74.183345   -255.15007    110.47831   -4659.1257 
 1909000    101.59894    -5054.426   -4858.4839    -5054.426            0    2235.5829    19.907963    19.971441    20.772168    8258.8211    1524.2625    2657.4047    2525.0813   -170.74576    418.75086   -349.99599   -4589.2159 
 1910000    105.26785   -5057.0815   -4854.0636   -5057.0815            0     1295.056    20.005626    19.975251    20.789329    8307.7778    1482.9039    496.51487    1905.7492    88.770115    993.96446    712.63909    -4697.154 
 1911000    101.72864   -5055.6547   -4859.4624   -5055.6547            0    2762.2385    19.944798    19.884327    20.749539    8229.0361    2653.1097    3092.8796    2540.7261    543.61006    45.814944   -1669.6403   -4527.9605 
 1912000    104.85912    -5052.395   -4850.1653    -5052.395            0    2195.1362     19.95764    19.896459    20.796024    8257.8176    3085.0316     1461.228    2039.1491    116.70253    257.20835    397.75761   -4585.8011 
 1913000    99.815058   -5040.4816   -4847.9799   -5040.4816            0      2212.22    19.842774    20.014798    20.838642     8276.048    1391.3823    2734.9938    2510.2839    14.081557    934.15509    627.00897   -4580.9701 
 1914000    98.484078   -5049.7285   -4859.7937   -5049.7285            0    2658.5804    19.966797    19.912204    20.733568    8243.3129    1529.1023    3743.1882    2703.4506    68.308584    986.06521   -461.94247   -4540.1785 
 1915000     96.46258   -5042.9532    -4856.917   -5042.9532            0    2656.3359    20.011206    19.942724    20.733099    8274.1227      2785.82    2366.3739    2816.8138   -132.47235    291.35303   -75.621518    -4536.378 
 1916000     102.4537   -5043.4924   -4845.9018   -5043.4924            0     904.9832    19.963221     19.92526    20.880371    8305.6346    1344.8899    1458.3716   -88.311878   -236.04312   -513.92851   -140.27907    -4736.282 
 1917000     104.4764   -5054.6089   -4853.1174   -5054.6089            0    2574.1954     19.82419    19.947392    20.831961    8237.8092    3660.2105    2102.8284    1959.5473    72.443136    479.78956    138.44744   -4543.8536 
 1918000    104.25892   -5042.3307   -4841.2586   -5042.3307            0    1585.1032     19.99082    19.921931    20.831007     8296.068    1635.2364    1533.6551     1586.418    58.586251    964.97234    986.45644   -4649.4775 
 1919000    103.34572   -5037.7648   -4838.4538   -5037.7648            0    2898.0834    19.873522    19.921255    20.766144    8221.4305    2943.4215    3108.6909    2642.1378    219.25969    684.01586    390.75655   -4490.9704 
 1920000    108.94336   -5060.4987   -4850.3923   -5060.4987            0     1695.456    19.944663    19.888116    20.903345    8291.5579     1049.484    2525.9148    1510.9693    178.24244   -66.437169   -174.53964   -4645.3712 
 1921000    102.19648    -5040.727   -4843.6325    -5040.727            0    3569.3253    19.929364     19.86832    20.697209    8195.3284    3174.1762    3984.4235    3549.3762     54.10399    355.26883    45.388295   -4417.0251 
 1922000    101.53118   -5051.8683   -4856.0569   -5051.8683            0    2775.6241     19.87566    19.951561    20.766982     8235.156    2959.1992     2601.334    2766.3392   -676.16659    537.64265    438.46774   -4522.7008 
 1923000    101.54373   -5056.9925   -4861.1569   -5056.9925            0    2891.7005    19.969703    19.848752    20.682716    8198.0841    2685.0751    3258.7134    2731.3129    -464.5237    291.43434     639.5358   -4515.4233 
 1924000    103.10094   -5048.1212   -4849.2824   -5048.1212            0    3158.9926    19.814729    19.968137    20.700659    8190.4893    3108.8098    2987.7075    3380.4606   -161.43224    652.32624     166.4304   -4471.9411 
 1925000    102.03104   -5050.3421   -4853.5666   -5050.3421            0    1787.5613    19.954635    19.964753    20.598513    8206.2282   -483.71325    3674.6977    2171.6995   -704.98116    625.15957   -113.81983   -4639.6323 
 1926000    99.615291    -5053.588   -4861.4715    -5053.588            0    3011.5426    19.929511    19.914439    20.684106     8209.212    3965.4001     2461.972    2607.2556   -213.67748   -378.08156    93.943543   -4500.9208 
 1927000    102.00476   -5047.6493   -4850.9245   -5047.6493            0    2247.4351    19.997397    19.943719    20.727115    8266.4389    2241.9333    2399.4535    2100.9184    77.762505    270.91646    605.31285   -4579.9793 
 1928000    102.62587   -5049.3194   -4851.3968   -5049.3194            0    2405.1879    19.999397    19.913786    20.700059    8244.0821    1647.9719    2789.3183    2778.2735    146.93362    85.647661   -348.01162   -4562.2175 
 1929000    105.66016   -5047.6117   -4843.8372   -5047.6117            0    2152.5476    20.013903    19.946018    20.771616    8291.9807     2885.619    997.81814    2574.2056   -189.31393     1179.245    680.14023   -4583.5296 
 1930000     105.2608   -5047.1277   -4844.1234   -5047.1277            0    2644.0491    19.946736    19.927692    20.800816    8268.1665    2584.5497    2659.9794    2687.6181   -261.97837    471.98305      66.5275   -4525.2968 
 1931000    99.395353   -5044.2899   -4852.5976   -5044.2899            0    3393.4041    20.033094    19.796334    20.692006    8206.0734     3988.472    3379.1517    2812.5885     88.25478    74.325893     419.8792   -4446.4846 
 1932000    106.43205   -5059.9828   -4854.7196   -5059.9828            0    1349.4619    19.983571    19.962879    20.747595    8276.8297    1600.0065    808.08487    1640.2943    82.450097    540.55235    73.797133   -4691.8273 
 1933000    100.28535   -5055.6872   -4862.2785   -5055.6872            0    1830.8683     20.03662    19.903863    20.678327    8246.6439    1705.9273    1948.0155     1838.662    -325.1342    117.31692    326.64919    -4642.082 
 1934000     101.5254   -5056.8691   -4861.0688   -5056.8691            0    2063.2628     19.99333    19.846595    20.753061    8234.8047    1775.5017    2285.0386     2129.248    250.36118     1031.888   -452.23234   -4613.2789 
 1935000    103.47235   -5040.0452     -4840.49   -5040.0452            0    3505.8834    19.842508    19.954205    20.698004    8195.1984    5106.2358     2943.385    2468.0295   -338.26575   -461.55336    161.53934   -4421.4719 
 1936000    101.19707   -5039.7724   -4844.6053   -5039.7724            0    1556.8835    19.966491    19.925074    20.862836     8299.942    641.65695    2970.6603    1058.3331    144.27622    992.30626   -35.628692   -4656.1506 
 1937000    98.278172   -5046.8558   -4857.3181   -5046.8558            0    2203.9924    19.977238    19.848957    20.731647    8220.6647    1699.3187    3126.8067    1785.8517    196.23386    70.097498    171.19278   -4593.0815 
 1938000    103.91156   -5043.1425   -4842.7403   -5043.1425            0    3920.7538    19.928738    19.929771    20.663894     8207.186    3337.1753    4720.1157    3704.9703    -132.7896    -1359.039   -74.790144    -4373.452 
 1939000     102.2334   -5060.0239   -4862.8582   -5060.0239            0    2556.3191    19.953628    19.970288    20.603973    8210.2646    2453.3949    2184.2472    3031.3153   -157.39206   -756.16764     648.8884    -4556.769 
 1940000    103.32692   -5034.0111   -4834.7364   -5034.0111            0    3811.9753    19.924512    19.955953    20.604296    8192.5282     3293.003    3739.1033    4403.8197   -522.67236    604.16161    214.87394    -4379.283 
 1941000    102.22873   -5046.3551   -4849.1984   -5046.3551            0    2494.3036    20.070503    19.960132    20.604058    8254.1891    2034.3009    2586.1067    2862.5033   -169.50729    614.60657   -664.53755   -4548.9369 
 1942000    102.97283   -5049.9963   -4851.4045   -5049.9963            0    1580.8964    19.965633    19.977916    20.792535    8293.5548     2172.781    1293.1715    1276.7368   -731.32826    26.722169   -597.46362   -4660.1904 
 1943000    106.87403   -5056.1159   -4850.0004   -5056.1159            0    2360.3616    19.831073    20.071042    20.834486    8292.7567     2794.196    2194.7631    2092.1258    29.837275    543.55413    165.47164    -4564.535 
 1944000    105.45829   -5044.7751   -4841.3899   -5044.7751            0    2235.6653    19.987871    19.868483    20.771052    8248.7804    1492.5708    2589.9021    2624.5229   -135.40169   -74.000209   -221.12052   -4572.4394 
 1945000    107.90143   -5060.5527   -4852.4557   -5060.5527            0    1993.5089    19.755338    20.052802    20.932728    8292.4976    4328.9763    594.10506    1057.4452   -277.52147    302.00546    294.36697   -4611.3656 
 1946000    100.54435   -5048.8487   -4854.9405   -5048.8487            0    3339.2281    19.922269    19.940537    20.747518    8242.1745    3725.0448    2880.3149    3412.3246   -535.01546    992.21228    574.09862    -4453.553 
 1947000    101.68185   -5047.1408   -4851.0388   -5047.1408            0    2648.4025    19.864954    19.824464    20.895425    8228.8705    3164.1964    2610.0821    2170.9289    183.42366     54.01909   -41.466226    -4533.205 
 1948000    102.59553   -5047.1806   -4849.3165   -5047.1806            0    2616.5026    19.846878    19.900053    20.847206     8233.686    3738.2182    2571.8385    1539.4509   -103.76001    717.70863    164.29471   -4535.1272 
 1949000    103.88395   -5040.6988   -4840.3498   -5040.6988            0    2936.0066     19.96775    19.823726    20.826507    8243.8649    3681.9433    2375.1379    2750.9385   -344.45134   -311.56571   -6.4725153   -4487.3587 
 1950000    98.939324   -5048.1533   -4857.3405   -5048.1533            0    3698.9976    19.908892    19.929084    20.733885    8226.5003    3662.2455    3560.1684     3874.579     -464.831    1359.8813    725.27084    -4413.553 
 1951000    97.916218   -5041.3628   -4852.5232   -5041.3628            0    2177.9777    20.114206     19.83646     20.67202    8248.0254    1632.0392    2495.9159    2405.9781   -566.96571   -28.783656   -177.12691   -4590.5364 
 1952000    104.37989   -5050.9847   -4849.6793   -5050.9847            0    2376.3756    19.936667    19.988838    20.717688    8256.2229     3429.762    912.09075     2787.274    -94.85893   -56.825297    31.082568   -4563.5434 
 1953000    100.19413   -5057.4942   -4864.2614   -5057.4942            0     2030.442    20.036116    19.840661    20.820894    8276.9255    1085.3436    2827.6318    2178.3506    324.27638    986.88481    407.86392   -4619.1658 
 1954000    98.236614   -5047.3796    -4857.922   -5047.3796            0    3037.7632    19.979525    19.894841    20.665709    8214.4019    2811.4969    3521.4855    2780.3072   -162.02663    537.61907    941.95027   -4494.0022 
 1955000    100.71823   -5057.3952   -4863.1517   -5057.3952            0    3574.9295    19.838375    19.899041    20.732357    8184.4014    4334.1415    3012.9203    3377.7266   -116.68636    117.60981    207.99112   -4436.4441 
 1956000     95.68662   -5048.8825   -4864.3428   -5048.8825            0    3529.9813     20.00062    19.837748    20.705105    8215.1075    3440.1301    3433.9704    3715.8435    -160.2143    1082.4679    238.09822   -4441.4196 
 1957000    97.191741   -5041.8499   -4854.4075   -5041.8499            0    1965.1381    20.173448    19.881933    20.672314    8291.3996    730.60032    2556.1585    2608.6554   -52.378087   -1034.7448    481.35341   -4616.7799 
 1958000    101.83813   -5046.0657   -4849.6623   -5046.0657            0    1821.1585    20.013642    19.925081    20.756325     8277.071    1509.4728    1354.5429    2599.4598    95.824574    413.50992    688.94498   -4629.8256 
 1959000    104.46644   -5052.1744   -4850.7021   -5052.1744            0    3293.0915    20.000921    20.010868    20.565202      8230.93    2174.4075    4077.8018    3627.0651   -199.71242   -81.822831     480.3237   -4455.4005 
 1960000     98.18782   -5029.8292   -4840.4657   -5029.8292            0    2384.0259    20.083717    19.912485    20.654774    8260.1894    1500.3662    3063.9968    2587.7147   -86.466302   -812.59122   -242.38296   -4553.2707 
 1961000     105.8326   -5056.9709   -4852.8639   -5056.9709            0    2347.7959    19.953459    19.978882    20.762494    8276.9229    1832.0443    3207.1616    2004.1817    29.798643   -211.66234   -774.79996   -4569.4604 
 1962000    104.64084   -5051.2171   -4849.4084   -5051.2171            0    2116.7238    19.936625    19.932882    20.744815     8243.873     2496.366    1019.7124     2834.093   -324.35819    567.85702   -219.87981    -4594.918 
 1963000    104.93698   -5043.1809   -4840.8012   -5043.1809            0    3221.0617     19.96577    20.032733    20.487035    8194.1776    2444.3428    3329.9848    3888.8576   -2.2795551    505.08621    354.13676   -4455.8724 
 1964000    106.87055   -5056.2079    -4850.099   -5056.2079            0    1405.0884    19.960606    20.130829    20.629752    8289.5202    1846.1358    365.04796    2004.0815   -254.66161    492.09579   -735.77118   -4680.2321 
 1965000     101.9409   -5066.5207   -4869.9191   -5066.5207            0    3164.7951    20.055844    19.839934    20.640123    8212.8415    2992.9214     3560.175     2941.289    -114.6772    351.33947    629.54648    -4490.853 
 1966000    99.507732   -5049.3438   -4857.4348   -5049.3438            0    2336.5186      19.8685    19.993102    20.680217    8214.8631    2490.7556    2483.4272     2035.373    568.50734    803.62404   -917.05867   -4577.5074 
 1967000    102.96172    -5063.849   -4865.2786    -5063.849            0    2659.7527    20.007269     19.90897    20.683403    8238.6983    2246.1512    3221.4207    2511.6861   -115.08113   -370.99403    -546.4472   -4545.7015 
 1968000    102.32638    -5039.759   -4842.4139    -5039.759            0    1195.0721    19.937225    19.996037    20.744286    8270.0309    1445.7173    1380.6033    758.89573   -75.571892    1025.0841   -406.65272   -4698.2764 
 1969000    103.11571   -5048.3428   -4849.4755   -5048.3428            0    1891.9756    19.985298    20.002014    20.740219    8290.8238    1580.3198     2720.558    1375.0491     163.4262    104.04549    -1076.478   -4620.7107 
 1970000    99.432957   -5053.6448     -4861.88   -5053.6448            0    2668.5901    19.907861    19.989151    20.668165    8224.7154    2703.5255    1986.6071    3315.6378   -356.10176     235.1106    572.92111   -4541.7852 
 1971000    103.04842   -5054.9822   -4856.2447   -5054.9822            0    1766.8626    19.796201    20.051064    20.819895    8264.1429    1564.2829    2102.4434    1633.8616   -645.20633   -419.99146    1295.0442   -4643.2952 
 1972000    103.35532   -5055.4555   -4856.1261   -5055.4555            0    3556.5585    19.862421     19.89356    20.703833    8180.7941    2334.4212    4983.0491    3352.2054   -611.88418   -16.807562   -209.23007   -4431.7985 
 1973000    100.17996   -5051.0547   -4857.8492   -5051.0547            0    2101.1685    19.888855     19.86363    20.793881    8214.9316    830.85499    3996.1988    1476.4518   -291.74382    1128.6399   -1072.1177   -4606.1159 
 1974000    100.10276   -5048.2786    -4855.222   -5048.2786            0    3667.2282     19.88814    19.987889     20.70851    8232.0869     4244.673    2663.5301    4093.4816   -386.43771    1312.9218    149.96443   -4414.9473 
 1975000    101.19921    -5055.973   -4860.8018    -5055.973            0    1775.4593    19.963972    19.977452     20.78905    8291.2822    1777.2569    2337.7076    1211.4133   -132.82202    115.12729   -732.24709   -4646.1135 
 1976000    95.486774   -5036.7095   -4852.5552   -5036.7095            0     2782.163    19.819998    19.980798    20.782486    8230.2671    4241.6475    1597.9966     2506.845   -13.363744    442.98942   -252.00325   -4518.6122 
 1977000     109.2591   -5037.3808   -4826.6654   -5037.3808            0    2042.5205    19.881981    20.083972    20.744465    8283.4546    2523.0446      1653.28    1951.2368   -109.74203    408.46582    134.08837   -4579.9173 
 1978000    104.38983    -5046.529   -4845.2044    -5046.529            0    1922.4703    19.931873    20.014843    20.763129    8283.1035    842.11244    2441.6584    2483.6401   -19.213118    47.254756    394.06366   -4612.9689 
 1979000    103.75907   -5047.5486   -4847.4405   -5047.5486            0    2841.9623    20.043875    19.847478    20.721094    8243.2732    2048.1035    3198.5752    3279.2081    165.56601    566.31479    216.76422   -4505.7807 
 1980000    103.68662   -5036.8034    -4836.835   -5036.8034            0    2675.0908    19.889127     20.00942    20.709413    8241.7229    3623.1914    1893.4226    2508.6582     291.6206   -11.543831   -922.84856   -4515.2969 
 1981000    104.61083   -5046.2427   -4844.4919   -5046.2427            0    2250.0527    19.994974      19.9371    20.680773    8244.2208     1527.579    3236.7702    1985.8087   -645.86395    702.29512   -206.54884   -4573.9602 
 1982000    102.64959   -5046.5654    -4848.597   -5046.5654            0     2022.029    20.124699    19.806322    20.625304    8221.1693    2429.7544     1593.712    2042.6207   -538.68708    543.12323    617.02774   -4606.1612 
 1983000    102.59961   -5056.6454   -4858.7734   -5056.6454            0    2316.3431    19.947317    19.999059    20.697429    8256.7747    2524.7799    2472.3063    1951.9431   -467.41748    233.91984    26.214081   -4579.8472 
 1984000     100.2404   -5039.8662   -4846.5441   -5039.8662            0     3001.259    19.958225    19.898175    20.691827    8217.3919    3932.5872    2791.1659    2280.0239    449.57629   -94.315555   -218.04515   -4486.8666 
 1985000    94.359717   -5046.5109   -4864.5302   -5046.5109            0    3224.0333    20.025078    19.753865     20.83015    8239.8384    3127.3219    3707.2665    2837.5114   -276.46161    341.71988   -35.520066   -4477.0994 
 1986000    98.527336   -5049.0897   -4859.0714   -5049.0897            0    2473.7838    19.893907    19.936113    20.712363    8214.6719    2433.9235    2984.6221    2002.8058    18.002614    1047.8676    270.86587   -4562.7058 
 1987000    101.87769   -5046.2204   -4849.7407   -5046.2204            0    3578.5805    20.027965    19.821624    20.583443     8171.355    2246.2378    4524.1918    3965.3119   -274.28811    277.37898    733.80516   -4423.2783 
 1988000    102.61872   -5042.2121   -4844.3033   -5042.2121            0    3308.5452    19.827717    19.919782    20.770717    8203.6814    2916.4413    4148.7808    2860.4135   -376.38455    293.67794    -527.1561   -4448.4614 
 1989000    101.87556   -5050.3823   -4853.9067   -5050.3823            0    2280.3111    19.919891     19.85682    20.825607    8237.4791    1832.6136    2927.6679    2080.6519   -252.69687   -605.95258    112.90546   -4579.9611 
 1990000    105.68913   -5051.1474    -4847.317   -5051.1474            0    2838.9567    19.814647     19.98115    20.818897    8242.6059    3515.5974    2182.8663    2818.4063   -467.18179   -811.90251     228.3375   -4506.0461 
 1991000    95.665352   -5048.3273   -4863.8287   -5048.3273            0    553.22062    20.033952    19.976799    20.859036    8348.0833    1524.9557    -121.5499    256.25606    165.38081   -561.36208    932.59173    -4796.475 
 1992000    100.13279   -5046.2632   -4853.1487   -5046.2632            0    2986.6597    19.856889    19.944984    20.865026    8263.4957    4460.4327    2297.7809    2201.7654    29.949397    925.21316   -148.47769   -4493.2126 
 1993000    102.52971   -5044.0092    -4846.272   -5044.0092            0    2328.8621    19.852165       19.868    20.912208    8248.2516    1198.3107    4074.7466     1713.529   -238.14778    358.47983   -1055.9469   -4566.1279 
 1994000     105.2396   -5049.5153   -4846.5519   -5049.5153            0    2341.6361    19.954591    19.925119    20.839927    8285.9049    1922.0755     2880.512    2222.3208    138.94325   -412.51067   0.58251381   -4563.5852 
 1995000    109.08715   -5047.8807   -4837.4969   -5047.8807            0     1720.797    19.949749    19.923761    20.826493      8277.99    2022.8176     1605.882    1533.6915   -169.43791   -217.12889    626.98973    -4629.752 
 1996000    106.68795   -5053.4298   -4847.6731   -5053.4298            0    2323.5341    20.013496    19.844798    20.782494    8254.0538    2140.7921    3034.1134    1795.6966    47.142569   -1049.2773   -507.71802   -4567.9733 
 1997000    100.88961   -5045.9851    -4851.411   -5045.9851            0    1830.7993    19.940479    19.935866    20.747817    8247.8941    3248.4472    582.68648    1661.2643    458.46455   -154.01692    953.24543   -4631.1895 
 1998000    105.61334   -5047.0993   -4843.4151   -5047.0993            0    2375.7633    19.931505    19.880111    20.785659    8236.1204    2259.6701    2683.7083    2183.9113   -326.10969    156.71839   -803.44532   -4558.0494 
 1999000    97.649259   -5049.0442   -4860.7194   -5049.0442            0    2449.2216    20.061256     19.88124    20.691401    8252.6131    3079.9582    1783.9862    2483.7202   -84.742611    602.38339   -30.888307   -4565.9412 
 2000000    104.28545   -5034.7762    -4833.653   -5034.7762            0    2287.8493    20.024668    19.866033    20.699427     8234.454    1281.0276    3404.4132    2178.1072    18.224563   -58.174499    322.24901   -4558.9027 
Loop time of 345.782 on 64 procs for 250000 steps with 972 atoms

Performance: 124.934 ns/day, 0.192 hours/ns, 723.000 timesteps/s
99.1% CPU use with 64 MPI tasks x 1 OpenMP threads

MPI task timing breakdown:
Section |  min time  |  avg time  |  max time  |%varavg| %total
---------------------------------------------------------------
Pair    | 18.559     | 27.463     | 36.632     |  86.1 |  7.94
Bond    | 0.25706    | 0.27483    | 0.28808    |   1.2 |  0.08
Kspace  | 136.53     | 145.62     | 154.75     |  37.8 | 42.11
Neigh   | 0.60189    | 0.61237    | 0.62179    |   0.6 |  0.18
Comm    | 81.449     | 82.166     | 83.317     |   5.0 | 23.76
Output  | 0.61398    | 0.6147     | 0.61633    |   0.0 |  0.18
Modify  | 80.475     | 81.84      | 84.856     |  11.8 | 23.67
Other   |            | 7.194      |            |       |  2.08

Nlocal:        15.1875 ave          20 max          12 min
Histogram: 6 9 9 12 0 12 7 6 2 1
Nghost:        2263.92 ave        2287 max        2247 min
Histogram: 5 5 10 12 10 6 3 7 2 4
Neighs:        4784.34 ave        6685 max        3129 min
Histogram: 1 6 9 9 13 7 10 5 1 3

Total # of neighbors = 306198
Ave neighs/atom = 315.01852
Ave special neighs/atom = 2.0000000
Neighbor list builds = 1843
Dangerous builds = 0

unfix		3
unfix		2
unfix		1

write_data	data.final.${pid}
write_data	data.final.1
System init for write_data ...
PPPM initialization ...
  extracting TIP4P info from pair style
  using 12-bit tables for long-range coulomb (../kspace.cpp:340)
  G vector (1/distance) = 0.37267137
  grid = 24 24 25
  stencil order = 5
  estimated absolute RMS force accuracy = 0.0033761241
  estimated relative force accuracy = 1.0167097e-05
  using double precision FFTW3
  3d grid and FFT values/proc = 2366 288
Last active /omp style is kspace_style pppm/tip4p/omp
WARNING: Not all mixed pair coeffs generated from mixing. Use write_data with 'pair ij' option to store all pair coeffs. (../write_data.cpp:312)

write_restart   restart.lmp.${pid}
write_restart   restart.lmp.1
System init for write_restart ...
PPPM initialization ...
  extracting TIP4P info from pair style
  using 12-bit tables for long-range coulomb (../kspace.cpp:340)
  G vector (1/distance) = 0.37267137
  grid = 24 24 25
  stencil order = 5
  estimated absolute RMS force accuracy = 0.0033761241
  estimated relative force accuracy = 1.0167097e-05
  using double precision FFTW3
  3d grid and FFT values/proc = 2366 288
Last active /omp style is kspace_style pppm/tip4p/omp
Total wall time: 0:05:45
