LAMMPS data file via write_data, version 30 Jul 2021, timestep = 47500000

1296 atoms
2 atom types
864 bonds
1 bond types
432 angles
1 angle types

-10.55787192624688 12.537871926246881 xlo xhi
-9.141107172697245 12.131105172697245 ylo yhi
0.14886478827144956 21.711134211728805 zlo zhi
-9.108632676481232 1.8728574093081962 2.8404356451256305 xy xz yz

Masses

1 1.008
2 15.999

Pair Coeffs # lj/cut/tip4p/long/omp

1 0 0
2 0.21084 3.1668

Bond Coeffs # harmonic/omp

1 450 0.9572

Angle Coeffs # harmonic/omp

1 55 104.52

Atoms # full

280 94 2 -1.1794 -9.525377176095187 -4.490808266556933 1.5838870149795128 1 1 0
270 90 1 0.5897 -8.418528033683042 -7.345471534069518 2.0956204852446003 1 1 0
269 90 1 0.5897 -9.222597316679199 -6.097160149579367 2.390720042364598 1 1 0
268 90 2 -1.1794 -9.05750038453552 -6.984236548013836 2.710005004970558 1 1 0
314 105 1 0.5897 -8.723897399028969 -6.723503219246304 4.466698318265562 1 1 0
299 100 1 0.5897 -6.504282938831884 -7.890755381355863 4.11063022446171 1 1 0
163 55 2 -1.1794 -7.109870172953622 -7.934400919506291 0.9007492763028343 1 1 0
164 55 1 0.5897 -6.30100522219158 -8.300506044147852 1.258626476136094 1 1 0
298 100 2 -1.1794 -5.9002588607557955 -7.148730708862003 4.139635946894244 1 1 0
73 25 2 -1.1794 -8.336980459048984 -3.7209110202708704 4.807888990079518 1 0 0
324 108 1 0.5897 -7.084336519494105 -4.313234869304334 3.5605250438919973 1 1 0
74 25 1 0.5897 -8.033265487722474 -3.133615730298817 5.5000116344222665 1 0 0
282 94 1 0.5897 -10.388701541773697 -4.0799519088082254 1.6316024331912056 1 1 0
84 28 1 0.5897 -8.061943533734532 -0.4822369591192821 4.1357378720658975 1 0 0
75 25 1 0.5897 -9.137349311039296 -3.3111723046479673 4.479420526404874 1 0 0
281 94 1 0.5897 -8.910088503596839 -3.757522939052623 1.584435881056466 1 1 0
301 101 2 -1.1794 -7.860374530630283 -2.2295391832118288 1.5895120949421317 1 1 0
53 18 1 0.5897 -12.198824931326406 1.0126786481285706 2.3688604135610545 1 0 0
275 92 1 0.5897 -10.432424358511126 -7.945716404137656 3.3731600104705644 1 1 0
97 33 2 -1.1794 -11.767726355302802 0.6944215650123304 5.402908333031395 1 0 0
322 108 2 -1.1794 -6.400982754245873 -4.666439980636285 2.990838896431504 1 1 0
300 100 1 0.5897 -5.03013892163743 -7.545523920902099 4.096508680858497 1 1 0
313 105 2 -1.1794 -8.730316773881022 -6.393091230830672 5.364962939555358 1 1 0
256 86 2 -1.1794 -11.98233087626702 -3.2683778735945967 1.8639490273062058 1 1 0
258 86 1 0.5897 -12.414140745695686 -2.7217065584584947 1.207571067464775 1 1 0
241 81 2 -1.1794 -1.0564389335205728 -6.417651802950317 5.397360375259456 0 1 0
90 30 1 0.5897 -3.713874264683608 -0.28644815035791105 2.0814740947755648 1 0 0
69 23 1 0.5897 -11.014982301565556 -2.5537602986197294 3.261373049209465 1 0 0
272 91 1 0.5897 -9.344546429950777 -1.2043906007111547 1.2658728762983475 1 1 0
83 28 1 0.5897 -9.535701825829884 -0.8280930668068862 4.165771995635877 1 0 0
82 28 2 -1.1794 -8.931886787778094 -0.08553394251870827 4.183057886157045 1 0 0
271 91 2 -1.1794 -10.163139517114912 -0.8252243794530489 0.9456879703539401 1 1 0
98 33 1 0.5897 -11.799863039774582 0.40791493370409526 4.490235960534126 1 0 0
54 18 1 0.5897 -11.408779119009976 -0.2619299355474016 2.161290683018253 1 0 0
67 23 2 -1.1794 -10.595264566577207 -2.32156820808423 4.089693038207529 1 0 0
68 23 1 0.5897 -11.279493337399757 -2.4439164348654945 4.747786248811016 1 0 0
52 18 2 -1.1794 -12.065439132903299 0.13722528941056744 2.73202062061723 1 0 0
261 87 1 0.5897 -6.70436258389368 -4.969309027640186 1.2026581781712287 1 1 0
323 108 1 0.5897 -6.246059704464581 -5.551062913727778 3.3218103319805445 1 1 0
310 104 2 -1.1794 -3.4386366086310014 -8.373338023273114 3.8070233615587044 1 1 0
3 1 1 0.5897 -1.397726279147257 -3.377933656809817 4.39943608655967 0 0 0
103 35 2 -1.1794 -2.8893973252960503 -2.373715020523269 4.047288982877988 1 0 0
89 30 1 0.5897 -4.496094140800429 0.9862922906080165 2.326714805618122 1 0 0
259 87 2 -1.1794 -6.700509143290352 -5.281502086338236 0.29788728571656303 1 1 0
59 20 1 0.5897 -13.450508793257029 -0.8214545220604119 3.3985430251767537 1 0 0
88 30 2 -1.1794 -4.366648383987433 0.10035058736536939 2.665018410765527 1 0 0
302 101 1 0.5897 -7.428183898338299 -1.9869913835782986 2.4084001819239695 1 1 0
107 36 1 0.5897 -9.27159635812557 1.485133811341674 3.3558801867354893 1 0 0
306 102 1 0.5897 -0.6420267892101883 -7.372819940349293 2.1020357367747042 1 1 0
304 102 2 -1.1794 -1.3223058403347334 -7.021772904187246 2.676711290815655 1 1 0
318 106 1 0.5897 -2.6736812011150732 -4.125320117474874 1.6359710864717876 1 1 0
242 81 1 0.5897 -1.061621096123062 -6.720591070859482 4.4894562423629525 0 1 0
305 102 1 0.5897 -1.4637937930792884 -6.128514604578626 2.3633860064126746 1 1 0
316 106 2 -1.1794 -1.8108767365288827 -4.532346674325837 1.55656056747638 1 1 0
311 104 1 0.5897 -2.7008337663771282 -7.954428601976558 3.3638026218624177 1 1 0
293 98 1 0.5897 -4.987592573124142 -3.764652085380118 2.3227107750601377 1 1 0
303 101 1 0.5897 -7.185328696801337 -2.118421320179997 0.9200427320306055 1 1 0
294 98 1 0.5897 -4.710504572964643 -2.7960597930213957 1.1929011998064758 1 1 0
243 81 1 0.5897 -0.8881321984672894 -5.477429963022322 5.335734691507886 0 1 0
96 32 1 0.5897 -6.042295760309339 -1.8131269198667521 4.474600937548801 1 0 0
95 32 1 0.5897 -5.764003462001256 -0.8368656822209157 3.3517082953479758 1 0 0
105 35 1 0.5897 -3.332645533339252 -2.588692140312004 3.226610660152937 1 0 0
94 32 2 -1.1794 -6.478145743811737 -1.2803083214475093 3.8095589512177637 1 0 0
104 35 1 0.5897 -3.5577059598604865 -2.4996032435962547 4.720886693630258 1 0 0
26 9 1 0.5897 -4.118991232239278 0.3918058530732633 4.449441332923088 0 0 0
292 98 2 -1.1794 -4.274195085004916 -3.3211263773280413 1.8637826198630085 1 1 0
27 9 1 0.5897 -3.926955810149244 1.6166766055797002 5.318090556649094 0 0 0
99 33 1 0.5897 -11.605189707569561 1.6363637883421944 5.353226785265167 1 0 0
25 9 2 -1.1794 -4.102990146408661 0.6769197254023691 5.3629738667499645 0 0 0
44 15 1 0.5897 -9.874000462393738 0.8777821414501599 0.36548951586101475 1 0 0
260 87 1 0.5897 -6.8394134634117005 -6.2258301419893245 0.3692052606400774 1 1 0
315 105 1 0.5897 -8.647476952871394 -5.444055727874785 5.272238060274417 1 1 0
201 67 1 0.5897 0.37941081723697323 -8.504812364352837 0.21997286113877507 1 1 0
317 106 1 0.5897 -1.1975318850069172 -3.797439586170321 1.558818917671404 1 1 0
165 55 1 0.5897 -7.353064517489695 -8.533780695846193 0.19521671249794648 1 1 0
309 103 1 0.5897 -2.703023423415533 -1.4698712643863985 0.20257784351882463 1 1 0
273 91 1 0.5897 -10.428885722271373 -1.3994393195588026 0.22747151951025218 1 1 0
420 140 1 0.5897 -9.06244661102041 -6.487491938935587 9.84274866981639 1 0 0
618 206 1 0.5897 -7.732042505148465 -7.315485940669909 6.616423656805719 1 1 0
413 138 1 0.5897 -7.570439168588078 -3.5866915434428677 7.723923222312811 1 0 0
419 140 1 0.5897 -8.799883819850546 -5.4422208260915355 8.779781033289458 1 0 0
418 140 2 -1.1794 -9.506932508979649 -5.922008218213064 9.211235279879327 1 0 0
414 138 1 0.5897 -6.758610959727115 -4.84313304323794 7.491139271417773 1 0 0
350 117 1 0.5897 -7.124402119063257 -4.199306730611483 9.847921877492295 0 0 0
412 138 2 -1.1794 -7.423976721984382 -4.467783461691672 8.067907976369657 1 0 0
429 143 1 0.5897 -6.33259854332782 -7.147086481187669 8.62897821311968 1 0 0
427 143 2 -1.1794 -5.897476553820262 -6.9006096371871415 9.445137125795924 1 0 0
428 143 1 0.5897 -6.556604785138521 -7.05015501112718 10.122924978733769 1 0 0
544 182 2 -1.1794 0.4029709191741908 -7.888217215495697 7.23236640007273 0 1 0
403 135 2 -1.1794 -5.067639858129366 -2.7555960428809803 5.701972085121612 1 0 0
330 110 1 0.5897 -3.0925781002519113 -0.24689988195993529 6.6044828319260915 0 0 0
435 145 1 0.5897 -7.44789671547683 -0.8848977188913558 9.85436143322153 0 0 0
425 142 1 0.5897 -7.308200724387195 -1.2603194125147965 6.916424168861474 1 0 0
400 134 2 -1.1794 -10.37188250587318 -0.8009472781348155 7.29972242240442 1 0 0
536 179 1 0.5897 -9.571609873042737 0.004120662799106611 10.160632713106683 1 0 0
402 134 1 0.5897 -10.802502699144293 -0.25145465191127947 6.644920925992409 1 0 0
526 176 2 -1.1794 -12.562778920303547 1.146893824254155 9.231861091917187 1 0 0
405 135 1 0.5897 -4.999511014681515 -2.4348229033462365 6.60117286288965 1 0 0
537 179 1 0.5897 -9.349966313668219 -0.15483849046534104 8.671650115830829 1 0 0
426 142 1 0.5897 -8.776000649164494 -1.6289404846492594 6.962821514258843 1 0 0
401 134 1 0.5897 -11.089478741799477 -1.2570007120860938 7.73942982848752 1 0 0
527 176 1 0.5897 -11.853907390044647 1.6214371736456226 8.797608092074448 1 0 0
535 179 2 -1.1794 -8.905502750497812 0.10048895930936119 9.480020652936751 1 0 0
424 142 2 -1.1794 -7.900040889677928 -2.0126434649623253 6.919412536497634 1 0 0
528 176 1 0.5897 -12.125641929201432 0.6282629094294201 9.90719517375384 1 0 0
417 139 1 0.5897 -8.834763673372038 1.0452523475598952 5.623513727447295 1 0 0
337 113 2 -1.1794 -6.263781677900138 0.24177011878946963 6.98574013791311 0 0 0
349 117 2 -1.1794 -7.061640943775597 -3.911734067575832 10.758666925594733 0 0 0
631 211 2 -1.1794 -5.492123823788085 -5.434412000094648 6.301695672116273 1 1 0
415 139 2 -1.1794 -8.571739511114476 1.6571873381907931 6.310926587549181 1 0 0
329 110 1 0.5897 -3.36500899523556 -1.2430678071674466 7.7112137810330745 0 0 0
454 152 2 -1.1794 -4.856294474503 1.1977545094220954 9.176021080196977 0 0 0
335 112 1 0.5897 -4.8448575521212 -5.381857468957673 9.492178950962185 0 0 0
433 145 2 -1.1794 -6.632666861501892 -1.261942829256018 10.185443099301086 0 0 0
464 155 1 0.5897 -1.9029796273557817 0.014469433624867634 10.125316334806882 0 0 0
522 174 1 0.5897 -9.827413540652486 2.215883984421639 7.542194987175693 1 0 0
555 185 1 0.5897 -2.558206885528926 -6.70101579931068 6.3579455440485635 0 1 0
416 139 1 0.5897 -7.75699055106137 1.293210366722608 6.657456639224587 1 0 0
347 116 1 0.5897 -1.1064327770559252 -5.473178633812292 8.760058311153658 0 0 0
348 116 1 0.5897 -1.3583391923392565 -6.494685891254966 9.84840063428194 0 0 0
336 112 1 0.5897 -3.3719522181374764 -5.032953610553779 9.456143498254663 0 0 0
359 120 1 0.5897 -4.563704049258412 -3.063129421630401 8.737135863571426 0 0 0
346 116 2 -1.1794 -1.809887156968923 -5.930904034868774 9.220382756935768 0 0 0
632 211 1 0.5897 -4.704358554680008 -5.8644015573504955 6.634702604588638 1 1 0
546 182 1 0.5897 -0.06258534631999346 -7.36851303169812 6.5771406536376835 0 1 0
553 185 2 -1.1794 -3.2294489977830434 -6.843355297085484 7.025322758628561 0 1 0
554 185 1 0.5897 -2.8006912225508005 -6.613182492731167 7.849568177758511 0 1 0
334 112 2 -1.1794 -4.241253742672669 -4.640271974706514 9.536934317293863 0 0 0
442 148 2 -1.1794 -7.303075731246768 2.3955428622328565 9.541363837909614 0 0 0
338 113 1 0.5897 -5.8145765191016805 0.4351245507852983 7.808555720752013 0 0 0
627 209 1 0.5897 -10.24164251292214 -6.713498628350622 6.307986660066733 1 1 0
456 152 1 0.5897 -4.4205596392368385 0.6557430367857879 9.833671203435054 0 0 0
360 120 1 0.5897 -5.426864065759572 -1.8386235390976298 8.954997669485545 0 0 0
328 110 2 -1.1794 -2.653683913176055 -0.7862247043718167 7.262241086184655 0 0 0
339 113 1 0.5897 -5.5942871801080845 0.3638357702662418 6.312615290388624 0 0 0
455 152 1 0.5897 -4.143877897682005 1.6667832448659805 8.74157736392578 0 0 0
411 137 1 0.5897 -13.301127650616518 0.40675750745466566 6.350990353844595 1 0 0
444 148 1 0.5897 -6.429240796656472 2.0102479347914013 9.475224780014567 0 0 0
358 120 2 -1.1794 -4.743054771736867 -2.1911974559453684 8.385467826539848 0 0 0
443 148 1 0.5897 -7.89759393783706 1.6453789245544446 9.532464220480577 0 0 0
356 119 1 0.5897 1.180454509627742 -7.115626747399629 10.110970466394987 0 0 0
616 206 2 -1.1794 -7.3022172712919 -7.868336577808937 7.268916597653477 1 1 0
351 117 1 0.5897 -6.912848770428595 -2.96787863152851 10.702656995437438 0 0 0
404 135 1 0.5897 -5.21000481508712 -3.6976798815983676 5.793318489697791 1 0 0
633 211 1 0.5897 -5.781094675431238 -5.990033739484078 5.577841980515341 1 1 0
410 137 1 0.5897 -13.528305437160745 0.4575408274880637 7.846736237020516 1 0 0
434 145 1 0.5897 -6.342226926165141 -0.6497563771149419 10.861507064395195 0 0 0
626 209 1 0.5897 -10.473613058968445 -6.624277839792611 7.8011981433801525 1 1 0
465 155 1 0.5897 -1.68506995933231 -0.05928003004620486 8.629146622318538 0 0 0
652 218 2 -1.1794 -5.659719714510004 -5.414724255136922 12.631718816673951 0 0 0
780 260 1 0.5897 -7.4547044721738045 -3.9766631224435987 15.26177421318882 0 0 0
779 260 1 0.5897 -7.181977066857435 -2.9474649043616576 14.185763945324123 0 0 0
778 260 2 -1.1794 -7.8925697333424045 -3.425935024007173 14.612838354840603 0 0 0
768 256 1 0.5897 -9.46590626850107 -2.601090521723777 14.902746202940806 0 0 0
654 218 1 0.5897 -6.1010165355849555 -4.878781815388024 11.97280628505599 0 0 0
653 218 1 0.5897 -6.369058229220915 -5.873125103082256 13.082245845372626 0 0 0
662 221 1 0.5897 -8.803426082545002 -4.141811320741633 13.207501281313284 0 0 0
661 221 2 -1.1794 -9.246680894294677 -4.362880571350233 12.388446297956339 0 0 0
663 221 1 0.5897 -8.581677709055468 -4.230972353012472 11.712734285668876 0 0 0
684 228 1 0.5897 -8.432551639682933 -6.444053694798256 14.346165886069965 0 0 0
682 228 2 -1.1794 -7.75867677783312 -6.813130071793293 13.775254863627579 0 0 0
758 253 1 0.5897 -9.485953304618274 -5.29729614450546 16.24658658396161 0 0 0
819 273 1 0.5897 -5.322667314632236 -0.4622997955397459 16.113048499928283 0 0 0
729 243 1 0.5897 -8.025547036046841 -7.1063017497525625 11.969449450432819 1 0 0
727 243 2 -1.1794 -8.056745811818747 -7.426201466901733 11.06790341203672 1 0 0
766 256 2 -1.1794 -10.329780761659872 -2.1912728972854696 14.949444781354776 0 0 0
806 269 1 0.5897 -4.157036780014094 2.96273229080586 13.218614744313019 0 0 0
767 256 1 0.5897 -10.945172047070953 -2.9237125818649785 14.916029603974613 0 0 0
790 264 2 -1.1794 -10.7962465670355 0.26057161469095824 13.794369040136546 0 0 0
762 254 1 0.5897 -9.120225580577701 2.199176060124996 11.991908877851197 0 0 0
761 254 1 0.5897 -9.419567026295748 1.1904741696993533 13.080185692469277 0 0 0
924 308 1 0.5897 -2.7364617759860286 3.113636670127553 15.285447926784954 0 0 0
792 264 1 0.5897 -11.47268340261063 0.6306028432595472 14.361620871429192 0 0 0
836 279 1 0.5897 -11.22482802960171 -1.2141681421864394 11.158955551697913 1 0 0
760 254 2 -1.1794 -8.69616368312988 1.6368515918069182 12.640061127083662 0 0 0
837 279 1 0.5897 -11.058826025295458 0.020117671477521526 12.019602641585761 1 0 0
791 264 1 0.5897 -10.649612496152843 -0.6203174762876333 14.138798387177498 0 0 0
769 257 2 -1.1794 -12.316907039396092 2.6767320486522816 12.383743941450065 0 0 0
788 263 1 0.5897 -4.937145150826259 -4.597191862539427 15.525711716898428 0 0 0
655 219 2 -1.1794 -0.3129923855444279 -7.4453281277482155 11.081739773915515 0 0 0
896 299 1 0.5897 -7.967853960588783 2.49686556732153 15.509569764260084 0 0 0
807 269 1 0.5897 -3.921674783110481 2.8578111119104257 11.726954312978945 0 0 0
817 273 2 -1.1794 -5.44897080788014 -1.4081762617811338 16.187212555704185 0 0 0
771 257 1 0.5897 -11.639780127061334 2.8235079968061516 11.723303322028276 0 0 0
897 299 1 0.5897 -7.741487134589098 2.3892067385795723 14.016713134552038 0 0 0
678 226 1 0.5897 -4.066595035113361 -6.23973933611986 12.377215658451208 0 0 0
802 268 2 -1.1794 -2.636160049281669 -2.2053364428882745 14.978613327370462 0 0 0
816 272 1 0.5897 0.2631446186026434 -3.989193649092142 15.20814686686336 0 0 0
888 296 1 0.5897 -10.501513486179556 3.112879776954456 15.235104987596445 0 0 0
667 223 2 -1.1794 -3.859026764826533 -2.965356939502647 11.708905939591654 0 0 0
789 263 1 0.5897 -4.692356303480898 -4.6937193235469294 14.035002059519403 0 0 0
676 226 2 -1.1794 -3.205223168068021 -6.648810959327738 12.292923353411167 0 0 0
814 272 2 -1.1794 -0.1933315337718895 -3.4191937195259143 14.589369769178296 0 0 0
785 262 1 0.5897 -5.612423997977891 1.235922362298158 12.320750443598234 0 0 0
657 219 1 0.5897 -0.2876957122852808 -7.132860071652782 11.986071778955067 0 0 0
803 268 1 0.5897 -3.255169533505141 -2.935059951867883 14.953618741658971 0 0 0
795 265 1 0.5897 -2.81583203512797 -5.511597122703518 15.232887878276555 0 0 0
720 240 1 0.5897 -0.7201655663508255 -6.40265130509577 14.323421050049523 0 0 0
804 268 1 0.5897 -1.7754230246666847 -2.6179500332244148 14.905888800717946 0 0 0
698 233 1 0.5897 -1.118978095079303 -4.11473921292068 13.188697265222412 0 0 0
699 233 1 0.5897 -0.9058035978233594 -4.2461856386122445 11.695801898651803 0 0 0
697 233 2 -1.1794 -1.5687166587758554 -4.352850654584168 12.377993694728806 0 0 0
718 240 2 -1.1794 -0.05791821373051853 -6.808640852358261 13.76407931325516 0 0 0
677 226 1 0.5897 -2.5913583696943325 -5.914546534799392 12.275225443021768 0 0 0
668 223 1 0.5897 -3.0478757669764054 -3.352515201106576 12.038323660970375 0 0 0
793 265 2 -1.1794 -2.011517757098005 -5.893415158233633 15.584547413345199 0 0 0
773 258 1 0.5897 -5.976365635861034 -1.1026668252462812 13.143370712895239 0 0 0
774 258 1 0.5897 -5.1815490896695895 -2.3702619636559916 12.912386976165886 0 0 0
818 273 1 0.5897 -5.4883955693826385 -1.7167820891020007 15.282059709068244 0 0 0
787 263 2 -1.1794 -4.263106895118796 -4.464301991274907 14.859201700336458 0 0 0
901 301 2 -1.1794 -5.026411919384875 1.2410252699183317 15.590833095855881 0 0 0
772 258 2 -1.1794 -5.837456497138662 -1.983090644561475 13.492162461208036 0 0 0
827 276 1 0.5897 -2.931713241995027 -0.5939647650935793 14.166586196045769 0 0 0
765 255 1 0.5897 -3.392012777912541 0.0034732381451281213 11.991760762093438 0 0 0
784 262 2 -1.1794 -6.2135847942807905 0.4914324770194831 12.295693752649628 0 0 0
828 276 1 0.5897 -3.7345961258718976 0.6736772583781967 14.367458376410886 0 0 0
826 276 2 -1.1794 -3.0665695454212063 0.28186596411770104 13.804884940765447 0 0 0
740 247 1 0.5897 -10.687215153812122 -3.3052376559306857 12.049269633967999 1 0 0
895 299 2 -1.1794 -7.302325136143973 2.6254500602792135 14.833734958717166 0 0 0
903 301 1 0.5897 -5.835072911872946 1.6247746093076554 15.251458443210746 0 0 0
786 262 1 0.5897 -7.0849541551811495 0.8845423279469049 12.346605218459537 0 0 0
805 269 2 -1.1794 -4.597820809291917 2.750412143687738 12.395920780989298 0 0 0
866 289 1 0.5897 -12.487832283628055 1.786322272941975 16.26726964688544 0 0 0
770 257 1 0.5897 -11.906040984182626 2.932854195624442 13.20944220756455 0 0 0
797 266 1 0.5897 -1.6972246967445201 1.1931989151203464 13.065131086835155 0 0 0
764 255 1 0.5897 -3.595470743894344 -1.2301238502908944 11.138189809191145 0 0 0
689 230 1 0.5897 1.356999703571768 -5.9016357311106 13.080953943904698 0 0 0
835 279 2 -1.1794 -11.091659860753973 -0.26773034051913847 11.107377195810571 1 0 0
763 255 2 -1.1794 -3.423229194466833 -0.29031138453047767 11.081372530961437 0 0 0
865 289 2 -1.1794 -12.770218112268015 1.208776576501144 15.558127320733753 0 0 0
794 265 1 0.5897 -1.7397292211160664 -5.2876641616133755 16.2740265028662 0 0 0
902 301 1 0.5897 -4.7455222689521195 1.8433411943315257 16.279675281611496 0 0 0
757 253 2 -1.1794 -9.727605281041729 -5.885821073777805 15.531452371378663 0 0 0
669 223 1 0.5897 -4.128003654368852 -3.5430809504078145 10.994716378749926 0 0 0
739 247 2 -1.1794 -11.506907373409948 -2.945282743308381 11.710274624065612 1 0 0
1150 384 2 -1.1794 -6.136934136674838 -4.348358182084736 19.190700413915362 0 0 0
1152 384 1 0.5897 -6.796111324749791 -3.969272059687615 19.772109248978136 0 0 0
1227 409 1 0.5897 -8.84408678268233 -2.9625940356551457 20.600894043310973 0 0 0
1109 370 1 0.5897 -8.693863059911212 -3.4453857768037306 17.69048719658579 0 0 0
1089 363 1 0.5897 -6.419196180052249 -4.618445427814883 17.37390949763565 0 0 0
1151 384 1 0.5897 -5.966900469252012 -5.217089786616274 19.55469628659102 0 0 0
1108 370 2 -1.1794 -9.314783448680299 -4.173853586232721 17.699485784238654 0 0 0
1225 409 2 -1.1794 -8.048164151958872 -3.355977961189451 20.95883251384804 0 0 0
1196 399 1 0.5897 -9.637590610500206 1.2573254285411632 16.546604620186976 0 0 0
1233 411 1 0.5897 -1.7170992261986964 2.463052711875063 17.422517010142197 0 0 0
1087 363 2 -1.1794 -6.4445392371655865 -4.921907316491749 16.466517732685613 0 0 0
1143 381 1 0.5897 -8.323074423037909 -5.064864594360946 21.501745735687308 0 0 0
1130 377 1 0.5897 -7.252395044901918 -1.6885934533964146 18.607493965061312 0 0 0
1248 416 1 0.5897 -5.795025627731912 -1.4800661562571094 20.60537351437128 0 0 0
1294 432 2 -1.1794 -1.4594131947107574 2.7531340700684623 19.191419725374267 0 0 0
1129 377 2 -1.1794 -7.696317390695876 -1.8890403412897196 17.783510317196274 0 0 0
1218 406 1 0.5897 -13.19118391326963 3.3428273734741243 17.75000762237456 0 0 0
1131 377 1 0.5897 -7.024717959117036 -1.7647205498390646 17.11289825405101 0 0 0
1125 375 1 0.5897 1.2941828463512746 -4.615035994958994 17.35872535999107 0 0 0
1246 416 2 -1.1794 -6.232143651950404 -0.928325705495519 19.95679496549054 0 0 0
1124 375 1 0.5897 1.1035430934921067 -5.857113636519696 16.514546018003635 0 0 0
1232 411 1 0.5897 -1.9133542703304691 1.230343389133223 16.565982909646095 0 0 0
1217 406 1 0.5897 -11.70757213114561 3.6415118037142573 17.703412870329675 0 0 0
1121 374 1 0.5897 -4.749266115739123 -3.418927999133058 18.495243771288408 0 0 0
1219 407 2 -1.1794 -10.296677443142052 -1.9415922087770046 20.228315069868774 0 0 0
1099 367 2 -1.1794 -9.946895280513221 -0.46361226315808857 17.07432152497405 0 0 0
1236 412 1 0.5897 -7.799138810476077 -0.07536258599435364 20.25504933996284 0 0 0
1009 337 2 -1.1794 -11.092167545459954 3.7116004451201423 20.951359131119638 0 -1 0
1100 367 1 0.5897 -9.12884370879851 -0.8447804005590491 17.3935114062381 0 0 0
1234 412 2 -1.1794 -8.66484975316914 0.3255475287132388 20.33395319934745 0 0 0
1259 420 1 0.5897 -9.027233920746653 1.8977165393047422 19.51721552649394 0 0 0
1258 420 2 -1.1794 -9.150710874388142 2.777541760997318 19.161188503199497 0 0 0
1260 420 1 0.5897 -9.841924551360126 3.160333808376949 19.701531135934534 0 0 0
1216 406 2 -1.1794 -12.335393281590713 2.9192308506946993 17.6822482890083 0 0 0
1197 399 1 0.5897 -9.390111044253631 2.492743137635328 17.38580039834579 0 0 0
1206 402 1 0.5897 -11.168515625081714 0.1287315637691009 18.32630882501244 0 0 0
1235 412 1 0.5897 -9.274696860278294 -0.4115664113591393 20.301714135253963 0 0 0
1046 349 1 0.5897 -3.0976144747519756 4.314727355609689 21.663785372744556 0 -1 0
1285 429 2 -1.1794 -3.772575470637795 1.0659924757568469 21.55850295931908 0 0 0
1110 370 1 0.5897 -10.172201486957341 -3.7575040419948307 17.788320329372254 0 0 0
1101 367 1 0.5897 -10.239406666562672 -1.06326814529241 16.387998061642037 0 0 0
1096 366 2 -1.1794 -8.789985774532196 -6.612914435789486 18.842395542444912 0 0 0
1187 396 1 0.5897 1.7245337688368316 -5.240134762684923 19.53945865993036 0 0 0
1287 429 1 0.5897 -3.6499416462789265 2.0144259088153937 21.5188337893909 0 0 0
1045 349 2 -1.1794 -3.3554973642929644 3.7255553195843003 20.95487679089953 0 -1 0
1226 409 1 0.5897 -7.7849717351207275 -2.7653857468311207 21.664602481160557 0 0 0
1165 389 2 -1.1794 0.05238968199658167 -1.930702429563528 17.813785260209684 0 0 0
1205 402 1 0.5897 -12.000853207648118 1.3737074181822209 18.548027517782852 0 0 0
1250 417 1 0.5897 -11.557186614559853 0.7626667265168106 20.668866855357482 0 0 0
1252 418 2 -1.1794 -4.610322619112923 2.9591153390509426 17.72517279447476 0 0 0
1240 414 2 -1.1794 -4.115601806066313 0.5085586707355976 18.890082378028104 0 0 0
1204 402 2 -1.1794 -11.84658487816941 0.494801222343801 18.89418378146929 0 0 0
1295 432 1 0.5897 -1.3136975814605183 1.871156676317506 19.53344603186307 0 0 0
1247 416 1 0.5897 -5.520086789408267 -0.4581113123044833 19.523040841499846 0 0 0
1272 424 1 0.5897 -0.10815882443907832 -0.11264679138767164 20.254729522870033 0 0 0
1145 382 1 0.5897 -0.9903813948094751 -3.43133014695208 17.755314674079525 0 0 0
1122 374 1 0.5897 -4.516648249895205 -2.392700918928405 17.407051407648165 0 0 0
1242 414 1 0.5897 -3.468777554581555 0.11993021589092479 18.301152720677898 0 0 0
1270 424 2 -1.1794 -0.9811998597711931 0.2748488004628644 20.3184570224642 0 0 0
1271 424 1 0.5897 -1.5784729231358323 -0.4725652594223124 20.288103576788107 0 0 0
1144 382 2 -1.1794 -1.5996500054775407 -4.167329818211277 17.69708938672379 0 0 0
1263 421 1 0.5897 -1.1494873529566867 -3.020775016613735 20.609159322508138 0 0 0
1133 378 1 0.5897 -1.2575116498283574 -5.7401814113790035 18.517517759769785 0 0 0
1188 396 1 0.5897 0.9256557357740611 -3.9736554828024637 19.76241582683143 0 0 0
1257 419 1 0.5897 -3.0727793980480094 -2.2004060231486005 19.41612743924789 0 0 0
1255 419 2 -1.1794 -2.624980113405263 -1.9972603011980024 20.23734894155949 0 0 0
1261 421 2 -1.1794 -0.3388329075506231 -3.3867020953852744 20.96315209523031 0 0 0
1256 419 1 0.5897 -3.286791106230708 -2.142124433988247 20.913540723057572 0 0 0
1120 374 2 -1.1794 -4.054889428330809 -2.9432074279000418 18.039410593780893 0 0 0
1146 382 1 0.5897 -2.466906065347308 -3.766532768810521 17.757418635233723 0 0 0
1195 399 2 -1.1794 -9.462646286930493 2.195905849182177 16.478759810997236 0 0 0
1088 363 1 0.5897 -6.601131056415441 -5.863840677013943 16.53270373136432 0 0 0
1296 432 1 0.5897 -2.1371189541366427 3.121493969682687 19.758245274862794 0 0 0
1254 418 1 0.5897 -5.477344976383881 3.3586114859236247 17.79648955917056 0 0 0
1135 379 2 -1.1794 -2.216269322975375 -0.4752119486847928 17.081925486083144 0 0 0
1286 429 1 0.5897 -3.8319285518153876 0.7931317894951047 20.643016609453866 0 0 0
1136 379 1 0.5897 -1.408576616936001 -0.8660402675323304 17.415479761289546 0 0 0
1047 349 1 0.5897 -4.174879699157119 4.093098487972762 20.623356482640485 0 -1 0
1241 414 1 0.5897 -4.27732182139122 1.3796013221558798 18.527825530584963 0 0 0
1141 381 2 -1.1794 -8.477168662788749 -6.00721405036647 21.567854628652647 0 0 0
1178 393 1 0.5897 -0.7739449510583736 -6.3357604481126995 20.63357428181863 0 0 0
1249 417 2 -1.1794 -11.531317275916768 1.0803480177524154 21.571365034710446 0 0 0
1011 337 1 0.5897 -11.893715357511049 4.083502551659924 20.583150184625158 0 -1 0
1097 366 1 0.5897 -8.94862744416962 -5.7443347695238245 18.472937105718273 0 0 0
1179 393 1 0.5897 -0.5777844561933758 -5.100029532171715 21.485765218826618 0 0 0
1186 396 2 -1.1794 1.5703727898991016 -4.368508345766079 19.17531790738888 0 0 0
1253 418 1 0.5897 -4.001413663433021 3.695867309578082 17.77729598967829 0 0 0
1229 410 1 0.5897 -7.7852454386222485 3.7268264238845408 18.497669838423587 0 0 0
1251 417 1 0.5897 -11.358463015439375 2.0183109502414336 21.490820955652985 0 0 0
1177 393 2 -1.1794 -0.7253505155096303 -6.043952939368845 21.54383759162188 0 0 0
1231 411 2 -1.1794 -1.7372663387640888 2.169594138417624 16.51171258795108 0 0 0
1123 375 2 -1.1794 1.242469277121664 -4.912273738215994 16.4503924423764 0 0 0
1221 407 1 0.5897 -10.737492694981018 -2.197129627759658 19.418016320693514 0 0 0
1142 381 1 0.5897 -8.514899512762774 -6.308530283229427 20.660177697448024 0 0 0
1132 378 2 -1.1794 -1.101612246408438 -6.61848198764654 18.864479472450597 0 0 0
1262 421 1 0.5897 -0.10006048559257863 -2.795244312894389 21.676832178729086 0 0 0
1137 379 1 0.5897 -2.4987140191556882 -1.0664652587132206 16.384193001904634 0 0 0
1010 337 1 0.5897 -10.857375723881166 4.305620027154312 21.664231186272072 0 -1 0
40 14 2 -1.1794 -14.989932651521368 3.8316685132469974 1.8842165123030181 1 0 0
177 59 1 0.5897 -14.028943391391454 4.578592559865616 3.255238196213556 1 0 0
56 19 1 0.5897 -12.386743919084646 5.870468452529847 1.2565352491983222 1 0 0
66 22 1 0.5897 -13.459832450957387 2.972169580637619 1.6310434911701852 1 0 0
65 22 1 0.5897 -11.987605752704855 3.3252414594425552 1.6118645664283375 1 0 0
64 22 2 -1.1794 -12.588206570607591 2.581045765355304 1.5701869576741738 1 0 0
191 64 1 0.5897 -12.582811369593424 6.330016057303148 4.174279572194827 1 0 0
183 61 1 0.5897 -12.114270649240304 3.758748193276821 4.444391609093389 1 0 0
175 59 2 -1.1794 -13.600883110873388 4.7950038933757835 4.083561804142878 1 0 0
176 59 1 0.5897 -14.271324748029127 4.637374000512098 4.748303392734187 1 0 0
181 61 2 -1.1794 -11.313698358370011 3.3576916745443484 4.7829212285385765 1 0 0
55 19 2 -1.1794 -13.185999836585577 6.269562619206313 0.912615270627584 1 0 0
42 14 1 0.5897 -15.431374092624603 4.362703227557509 1.221435884748226 1 0 0
108 36 1 0.5897 -10.054411084813388 2.7601294888859087 3.5871097002772685 1 0 0
215 72 1 0.5897 -12.27879088686765 8.62873638616846 3.3660728931926354 1 0 0
190 64 2 -1.1794 -11.964564934529685 7.060379934404269 4.199444650932801 1 0 0
135 45 1 0.5897 -6.941194957934632 8.735192349455472 5.301926835861828 0 0 0
153 51 1 0.5897 -12.683786990048402 9.246248720702157 1.2339445155621025 1 0 0
216 72 1 0.5897 -13.097952633507443 9.884972828078025 3.5728178943616764 1 0 0
162 54 1 0.5897 -14.42752735112008 6.859543450818689 2.140659982156408 1 0 0
57 19 1 0.5897 -13.45582633759685 5.690609420860378 0.19974289214554955 1 0 0
148 50 2 -1.1794 -18.00722031349573 10.905282624955303 1.854826677541096 1 0 0
174 58 1 0.5897 -16.41525193303034 10.09552233620518 1.5983380474943336 1 0 0
214 72 2 -1.1794 -12.418316956239568 9.507813607167629 3.0141448386845773 1 0 0
43 15 2 -1.1794 -9.738347338384552 1.8238179713352238 0.3130136972933501 1 0 0
206 69 1 0.5897 -14.819386423372364 7.456907042813329 4.5065335509809215 1 0 0
160 54 2 -1.1794 -15.10250613256682 7.231737573746548 2.7082354054113305 1 0 0
173 58 1 0.5897 -14.941543682066147 10.435111077277428 1.5252623653557957 1 0 0
85 29 2 -1.1794 -10.945108106368288 4.844393544698372 1.6988857350272906 1 0 0
219 73 1 0.5897 -7.449584257642593 10.856626729459792 4.445524472724145 0 0 0
291 97 1 0.5897 -15.14243224260225 10.832603517470895 4.435444403971276 1 0 0
161 54 1 0.5897 -15.226488515951932 8.1227249053647 2.381329554944983 1 0 0
172 58 2 -1.1794 -15.547908377745399 9.694584984347904 1.5402358336881234 1 0 0
289 97 2 -1.1794 -14.340672383871624 10.451868795197237 4.7940369337378135 1 0 0