LAMMPS data file via write_data, version 30 Jul 2021, timestep = 6500000

864 atoms
2 atom types
576 bonds
1 bond types
288 angles
1 angle types

0.2233865257691825 17.98418587422895 xlo xhi
1.354651090515178 22.274526709488846 ylo yhi
0.2725310396740568 21.940664760327586 zlo zhi

Masses

1 1.00794
2 15.9994

Pair Coeffs # lj/cut/tip4p/long/omp

1 0 0
2 0.21084 3.1668

Bond Coeffs # harmonic/omp

1 450 0.9572

Angle Coeffs # harmonic/omp

1 55 104.52

Atoms # full

531 1 1 0.5897 1.7349071399788776 3.426431400395413 4.65721182620614 -4 -1 -4
529 1 2 -1.1794 0.968635456618019 2.8814066102612435 4.836167606322452 -4 -1 -4
395 1 1 0.5897 3.714429712502057 4.628061995448796 2.280411048759833 2 0 5
528 1 1 0.5897 3.607479771622884 3.9718651924914927 4.8883671766616965 -2 -5 -1
527 1 1 0.5897 3.021246559025115 5.367236886889959 4.923588267053148 -2 -5 -1
134 1 1 0.5897 2.099615177403415 2.628460429768901 1.9552548072433606 0 -5 -3
526 1 2 -1.1794 2.9762990169380945 4.539136300544251 4.445573834242833 -2 -5 -1
133 1 2 -1.1794 2.105886742703592 1.7727430235137593 2.384212399543848 0 -5 -3
396 1 1 0.5897 3.914450689917983 5.69191606377671 1.2220048290394971 2 0 4
394 1 2 -1.1794 4.300476238235461 4.887876622349605 1.5695436926523931 2 0 5
694 1 2 -1.1794 1.6832487436737291 3.895685483435559 0.3186440515582977 6 -2 -2
696 1 1 0.5897 1.785223814098487 4.825286671764954 0.5228815719833406 6 -2 -2
530 1 1 0.5897 0.23128416574367094 3.4916145628217685 4.820974210111261 -4 -1 -4
135 1 1 0.5897 1.5376744116721404 1.8823336519869645 3.146734926217588 0 -5 -3
138 1 1 0.5897 1.1622731750470745 2.3225338450909563 8.016242535201716 8 -4 1
480 1 1 0.5897 3.1869675569179767 4.01329393769586 8.574882619306777 -1 4 -6
831 1 1 0.5897 0.8422436214393979 5.776071918379241 9.389195516776251 4 1 4
478 1 2 -1.1794 2.6167006978894394 3.307722822633421 8.880200770475541 -1 4 -6
479 1 1 0.5897 3.0680187602063356 2.94777603185768 9.643744635889563 -1 4 -6
137 1 1 0.5897 0.4897310977438818 2.067039549272618 6.684197152371973 8 -4 1
710 1 1 0.5897 3.0326520930957006 6.3581830660612635 6.759075926011186 -5 -1 0
830 1 1 0.5897 1.0535812344785458 4.320188418056279 9.03183137852443 4 1 4
829 1 2 -1.1794 0.4069521828426528 5.024530600472973 8.986745168975542 4 1 4
403 1 2 -1.1794 3.8418406338727342 5.5309121802768555 8.107884801931394 7 -2 1
136 1 2 -1.1794 0.32700549689557906 2.0628458718838627 7.627468421759469 8 -4 1
404 1 1 0.5897 4.034936384725401 5.777675860135855 9.012382097767999 7 -2 1
586 1 2 -1.1794 3.9013860617375933 2.3432245291533995 5.98113661984052 -1 2 4
588 1 1 0.5897 3.9925756510300743 2.709698456833646 6.86070373299338 -1 2 4
587 1 1 0.5897 3.346617652961297 1.5720236363324132 6.098771328421026 -1 2 4
405 1 1 0.5897 4.65875630902893 5.15251457040382 7.78271282395445 7 -2 1
45 1 1 0.5897 4.557095532712092 2.6952082573840377 15.250850331519096 0 5 -1
606 1 1 0.5897 4.501282265422938 5.903449936404738 13.62736686042163 -7 2 0
43 1 2 -1.1794 3.9132198632317676 2.646520709260014 14.544237914024103 0 5 -1
44 1 1 0.5897 3.0797689380087188 2.492528252120092 14.989201948939574 0 5 -1
316 1 2 -1.1794 2.5127530753684337 6.007215131477052 13.305716951855285 -3 -3 2
317 1 1 0.5897 1.8250350425081232 5.341618890151752 13.28798706230074 -3 -3 1
743 1 1 0.5897 0.8471601950697668 2.7478930620854474 13.113582270617986 -1 -1 5
742 1 2 -1.1794 0.6642244738655899 3.668977232311861 13.299016131019421 -1 -1 5
455 1 1 0.5897 2.6936115100297866 1.7119610969779337 11.771137654296158 1 2 1
454 1 2 -1.1794 3.346298565966823 2.072442125770034 11.170867850008438 1 2 1
313 1 2 -1.1794 1.8953312169547551 1.6480452661296692 16.24085252375808 -2 0 1
456 1 1 0.5897 3.7835336665626293 2.758336419202559 11.675490437679839 1 2 1
665 1 1 0.5897 3.7293488075520536 5.511861391235163 16.428470722749083 6 0 4
664 1 2 -1.1794 4.360593158542156 6.22693864566283 16.348048541092414 6 0 4
574 1 2 -1.1794 3.886188023708832 3.374279265026854 20.266232335808727 4 1 2
575 1 1 0.5897 3.2988543881452665 3.5558428852026736 20.999937918944905 4 1 2
348 1 1 0.5897 3.402638822142995 2.3671305152746225 18.750001765001294 -7 4 -2
632 1 1 0.5897 0.45139513825178595 4.5387101800345295 18.884830463278103 3 7 4
412 1 2 -1.1794 2.3501459846130826 4.291600754944629 17.0385767824777 -1 -2 3
414 1 1 0.5897 1.5929191524373436 4.877042551526379 17.049838309131495 -1 -2 3
695 1 1 0.5897 1.0939970340517744 3.878919065902809 21.23261418149561 6 -2 -3
413 1 1 0.5897 2.010385554434585 3.466406477189646 16.692293372500842 -1 -2 3
347 1 1 0.5897 4.39369551625142 1.5778783614456962 17.921250648261363 -7 4 -2
346 1 2 -1.1794 3.514558380905045 1.5313380578041544 18.29703766063887 -7 4 -2
576 1 1 0.5897 4.42872271101817 2.6455901141065743 20.567758999593163 4 1 2
670 1 2 -1.1794 1.9289373058893302 6.65816262710914 1.0288922916073933 2 1 0
358 1 2 -1.1794 2.1937330318806847 9.918623290831505 2.1688907289636115 2 -2 -1
360 1 1 0.5897 3.003052755616425 9.782017934363157 1.6763514582014876 2 -2 -1
359 1 1 0.5897 2.161932305346988 10.863125481134002 2.321079232583115 2 -2 -1
303 1 1 0.5897 4.451582550667467 8.356995508962253 4.148214217217657 0 4 8
715 1 2 -1.1794 4.100559438827516 9.923574366562816 5.428631957736521 4 -3 -4
302 1 1 0.5897 4.518014761434284 7.5977884728468235 2.840109464848686 0 4 8
329 1 1 0.5897 1.930166132433541 7.8022975148402764 4.427951172748406 3 4 -1
330 1 1 0.5897 1.529416704157936 8.994504591258371 3.5853458856521128 3 4 -1
328 1 2 -1.1794 1.1649384382857182 8.264008960137327 4.085131512932637 3 4 -1
658 1 2 -1.1794 4.6001311191656145 8.902723549392398 1.0991431908007905 0 -3 0
836 1 1 0.5897 0.7045308777239345 10.135127908379781 1.0209244690755634 1 2 0
671 1 1 0.5897 1.135005641670725 6.723667465721981 1.5595814908971635 2 1 0
717 1 1 0.5897 4.353101490766904 9.481343556052169 6.239132872729501 4 -3 -4
602 1 1 0.5897 3.4908235795190343 8.184241203394869 7.379565036176653 1 3 -2
748 1 2 -1.1794 3.291786242076914 9.389483618844084 10.320371881079225 5 8 0
311 1 1 0.5897 2.155679737588989 7.780273535363226 10.594520237052874 -1 0 2
275 1 1 0.5897 1.4299852306683083 10.805325213786649 8.622273422137225 1 2 -3
750 1 1 0.5897 3.4162607888713503 9.102221694284879 9.415808465807414 5 8 0
601 1 2 -1.1794 4.168057090405227 8.633278651211768 7.885525341359501 1 3 -1
749 1 1 0.5897 4.1221549940244895 9.188978914581607 10.752267941560731 5 8 0
709 1 2 -1.1794 2.554860667626471 6.9076153039641595 6.137710707538989 -5 -1 0
331 1 2 -1.1794 0.41047226325075403 8.889359443378721 8.188689303346344 -1 -1 -4
57 1 1 0.5897 4.299943582065182 10.875022269164146 8.78514493749755 0 0 0
711 1 1 0.5897 1.632477777421523 6.760134162308835 6.346857256601371 -5 -1 0
274 1 2 -1.1794 1.9447079430444605 11.59760074559048 8.775921438146733 1 2 -3
310 1 2 -1.1794 1.8484514253010411 6.893190452990454 10.781664982060068 -1 0 2
276 1 1 0.5897 2.404307173561061 11.429422188193499 9.598558926527188 1 2 -3
716 1 1 0.5897 3.4874014594487472 10.603721260475506 5.707356552229288 4 -3 -4
453 1 1 0.5897 2.4791050839423763 8.979281292644309 15.51323686540339 1 -1 4
584 1 1 0.5897 2.032124305997849 9.980372882243335 11.792432799796014 5 -5 2
493 1 2 -1.1794 1.2773284604105934 7.389939578924352 15.406686532407793 3 -4 -2
495 1 1 0.5897 1.0681659850919614 6.648507041622641 15.97483436929593 3 -4 -2
161 1 1 0.5897 0.32854983860023756 11.178457434590163 16.16418576087638 4 10 0
583 1 2 -1.1794 1.499026457257615 10.136770419949048 12.57191836593537 5 -5 2
585 1 1 0.5897 2.1207945201255973 10.101860108872776 13.298859582030651 5 -5 2
452 1 1 0.5897 2.596960555272712 10.483693770829795 15.63486151474553 1 -1 4
451 1 2 -1.1794 2.9735728693990353 9.729047824148996 15.182177773971432 1 -1 4
789 1 1 0.5897 4.5377158424085735 9.062010708604696 14.657570836556316 2 -1 4
312 1 1 0.5897 2.279008442043467 6.658543490458806 11.603742326352217 -1 0 2
494 1 1 0.5897 0.4257806116720323 7.750244983344164 15.15905613582794 3 -4 -2
318 1 1 0.5897 2.1388422417290824 6.725074256141285 13.816736449243821 -3 -3 2
780 1 1 0.5897 3.7098596235308876 7.565698145910416 17.469437292124578 -2 0 -2
335 1 1 0.5897 4.265550908412115 7.411319651033412 19.465657937425743 2 2 2
778 1 2 -1.1794 3.3162726409292813 8.020409293090642 18.214140761016534 -2 0 -2
779 1 1 0.5897 3.594828489904304 8.930712106129008 18.114012869414637 -2 0 -2
721 1 2 -1.1794 4.522772625553813 11.73906990869403 20.509126295629212 1 3 0
294 1 1 0.5897 1.7590946150693583 7.756950397026921 19.30031733134537 0 -1 2
293 1 1 0.5897 0.35133536185257636 7.513138075473569 19.801077302799527 0 -1 2
292 1 2 -1.1794 1.2283423958224557 7.757318766346823 20.09690789571324 0 -1 2
672 1 1 0.5897 1.7192674309247622 7.131724531489601 21.89202410354358 2 1 -1
659 1 1 0.5897 4.527742987920747 8.60513230061418 21.86038790604455 0 -3 -1
187 1 2 -1.1794 4.03622734015603 14.03189060254971 4.118485062696378 -3 6 3
188 1 1 0.5897 3.6258196917955283 14.896590172053331 4.129041780130271 -3 6 3
298 1 2 -1.1794 2.1425896659555357 12.770585053211718 2.4634466239058925 -3 0 1
299 1 1 0.5897 2.5880018587023486 13.096978512810622 3.2453334197355743 -3 0 1
300 1 1 0.5897 1.4401234220073942 13.401571764393099 2.3063848004354752 -3 0 1
796 1 2 -1.1794 2.781329198717009 15.754904124358152 0.8056382216137998 2 -3 -1
798 1 1 0.5897 3.5171369872022726 15.179627321858126 1.015144169420478 2 -3 -1
707 1 1 0.5897 3.8211008107935887 12.207706402958726 2.0295047146326146 1 -4 -7
107 1 1 0.5897 1.0777451568377803 15.191966499703256 1.4803553123477171 -5 2 2
108 1 1 0.5897 0.554573870749379 15.505996254476551 2.86586642156889 -5 2 2
757 1 2 -1.1794 2.9140227632345357 16.380740627222618 4.931642234812265 -1 4 0
706 1 2 -1.1794 4.633548839630809 11.831977782297352 1.6903541081796594 1 -4 -7
189 1 1 0.5897 4.00338607660138 13.739529698741537 5.029375658341376 -3 6 3
759 1 1 0.5897 1.9943660703156856 16.638162312239437 4.996712902694807 -1 4 0
106 1 2 -1.1794 0.39746627053055616 14.944544486190654 2.106658299418184 -5 2 2
269 1 1 0.5897 1.4453056375031414 12.097103599367292 5.654372608857147 4 6 8
166 1 2 -1.1794 4.4350819364178795 13.834759172460794 7.156364277403719 -2 -1 1
268 1 2 -1.1794 2.289839553532523 11.961647303982547 6.084099096668672 4 6 8
167 1 1 0.5897 3.4931194552321365 13.926155065014273 7.2999270046400655 -2 -1 1
270 1 1 0.5897 2.0734346292399177 11.855325168897153 7.010453547317841 4 6 8
724 1 2 -1.1794 2.0525021937029653 15.149609090939558 8.710729356973173 2 -2 3
725 1 1 0.5897 2.6575315137140616 15.854658241752375 8.480233334135468 2 -2 3
726 1 1 0.5897 2.002576032901762 15.178987332183137 9.666196130358532 2 -2 3
168 1 1 0.5897 4.621344988958263 12.91855501125703 7.361627327212434 -2 -1 1
158 1 1 0.5897 0.5499765070990081 16.030903506762293 8.347193622263585 0 1 -4
354 1 1 0.5897 3.4912057691202696 16.86599879245832 6.7609898247563045 1 3 -4
537 1 1 0.5897 1.6287488573542457 16.178487282526806 11.985574616934393 7 5 3
116 1 1 0.5897 2.3083210955812556 15.830827706332796 15.901143421421624 -2 -7 1
115 1 2 -1.1794 3.1501547340982325 16.259545551355778 15.746983983259305 -2 -7 1
46 1 2 -1.1794 0.8901016472119098 14.534018861292763 15.51234379086042 3 -2 -1
597 1 1 0.5897 2.0878387637206526 13.999499231804382 11.445132005494363 0 -5 0
534 1 1 0.5897 1.0020946182137989 12.776570242055627 12.948699401817086 -7 -2 -3
421 1 2 -1.1794 4.444680833707069 12.854362809867892 16.276004316244993 -6 1 6
536 1 1 0.5897 3.0122025577289344 16.063906027435344 11.381506942386185 7 5 3
48 1 1 0.5897 0.7309953793737438 14.163081286714345 14.644386529787385 3 -2 -1
535 1 2 -1.1794 2.128371497785051 15.700980028993442 11.323285141826092 7 5 3
595 1 2 -1.1794 2.2097048587659422 13.050964905806817 11.486182902639811 0 -5 0
596 1 1 0.5897 3.159265789866666 12.930432624278865 11.478166681584886 1 -5 0
532 1 2 -1.1794 0.22802682220666118 12.81320502961168 13.51059486511776 -7 -2 -3
15 1 1 0.5897 1.4872836679362615 12.974287558518828 16.230027593286017 1 -5 -6
422 1 1 0.5897 3.559218793734938 12.498233809781047 16.202499064632278 -6 1 6
568 1 2 -1.1794 2.8116633363932837 15.116886926794603 19.566702802131974 3 -3 0
499 1 2 -1.1794 0.460990370352237 16.824143664177498 18.543714962889602 -1 -2 -2
679 1 2 -1.1794 2.063081873262383 12.561171267710822 19.536506112913393 -7 -5 -1
680 1 1 0.5897 2.259511965805599 13.486400589564953 19.683554164845745 -7 -5 -1
681 1 1 0.5897 2.836214803482352 12.097600344128816 19.858497319707734 -7 -5 -1
800 1 1 0.5897 0.3566260717096153 12.290818497536078 19.680828592178496 1 0 0
797 1 1 0.5897 2.6926748114222714 15.694429295351032 21.522598343192087 2 -3 -2
14 1 1 0.5897 1.9251586154981437 12.244448412779237 17.482056182083042 1 -5 -6
570 1 1 0.5897 2.2366013319433917 15.682169706802851 19.05093421292206 3 -3 0
569 1 1 0.5897 3.6963300464532813 15.368339526666288 19.30133916520651 3 -3 0
13 1 2 -1.1794 1.7609136257890328 12.113924168062558 16.548104078179353 1 -5 -6
722 1 1 0.5897 4.414913749489383 12.037753259647731 21.412123944478864 1 3 0
567 1 1 0.5897 4.404939305067807 16.86618623002385 17.303147746551073 -2 3 -7
677 1 1 0.5897 3.639188585678142 21.893735536497466 2.1267184204816973 2 -3 -2
702 1 1 0.5897 4.438051684348149 18.33235957863196 1.1337377062144451 6 0 1
309 1 1 0.5897 0.8232838188823571 20.67328879180848 4.751685900211816 3 3 -2
520 1 2 -1.1794 4.165975009016489 18.842915068986756 4.09897523785782 -6 -3 -3
700 1 2 -1.1794 3.5719367089133494 18.280082840558393 1.5379370908346697 6 0 1
863 1 1 0.5897 3.193463970593524 20.156192887644465 5.029833622692246 1 0 3
522 1 1 0.5897 3.901863220935529 18.64683471107461 3.2000484992346943 -6 -3 -3
432 1 1 0.5897 2.376546685869627 19.35068254942275 0.5592441019150778 -6 -4 -1
676 1 2 -1.1794 4.350314852364769 21.363268758011067 1.7673017820066015 2 -3 -2
431 1 1 0.5897 2.089366668455748 20.834799040122313 0.6422655923651668 -6 -4 -1
862 1 2 -1.1794 2.717733645011753 20.751893995460854 5.608730241225544 1 0 3
758 1 1 0.5897 3.3838772155655894 17.20266555982438 4.790454016656927 -1 4 0
701 1 1 0.5897 3.289804284617741 17.378261561361896 1.3850693064325696 6 0 1
678 1 1 0.5897 4.524428739210782 20.706658451569673 2.4417038774620425 2 -3 -2
353 1 1 0.5897 4.424900456160915 17.50723369516482 7.765479123081971 1 3 -4
465 1 1 0.5897 1.6087329080741666 19.085271011932875 10.82747331117011 4 2 -2
593 1 1 0.5897 2.9238831515979884 19.95269004240169 8.474605983064569 0 -5 -1
118 1 2 -1.1794 4.0770075013787554 21.128712261567337 9.381283754068196 1 -4 -4
463 1 2 -1.1794 0.6812433986280011 18.90038753785224 10.679701730245206 4 2 -2
592 1 2 -1.1794 2.2527763701247654 19.529488078434092 7.939096229399552 0 -5 -1
119 1 1 0.5897 3.840350905098734 21.78365166404491 10.038040403478684 1 -4 -4
864 1 1 0.5897 2.5247686919749666 20.22789674111369 6.386189448942634 1 0 3
594 1 1 0.5897 2.438398686354289 18.5936834323034 8.017030316452221 0 -5 -1
252 1 1 0.5897 3.6264432348457905 19.672825602115772 10.764780971450197 3 -2 1
464 1 1 0.5897 0.30237651697912404 19.747145976205353 10.443672316449218 4 2 -2
352 1 2 -1.1794 3.572480871591769 17.07817643731601 7.690846329657691 1 3 -4
482 1 1 0.5897 0.6801578610773775 21.304174510266797 12.929321255775314 -1 3 -3
483 1 1 0.5897 0.5803804526420122 21.79298722720864 11.49996966927319 -1 3 -3
237 1 1 0.5897 4.068730613515976 21.747407596641764 14.2121745443933 3 -1 -4
314 1 1 0.5897 1.1351574956284272 21.999221825459607 16.11849549361063 -2 -1 1
88 1 2 -1.1794 1.987598239501879 18.86541837719313 14.918036143205963 7 -3 2
90 1 1 0.5897 2.654108669064298 19.465643381649798 14.583751671798284 7 -3 2
89 1 1 0.5897 1.278265447564183 19.435595253963804 15.214693860401686 7 -3 2
481 1 2 -1.1794 1.0225872878559432 21.96799649804148 12.330685382211394 -1 3 -3
250 1 2 -1.1794 3.168551744084721 19.32576218266147 11.530374846164856 3 -2 1
111 1 1 0.5897 1.1531287892203248 17.468559792876327 13.62602493814164 0 -2 -8
236 1 1 0.5897 4.019811033233186 20.534421996825373 13.30761150326918 3 -1 -4
235 1 2 -1.1794 3.811815257881731 20.825469167010816 14.195465825569825 3 -1 -4
251 1 1 0.5897 3.686349090782345 18.565594889461345 11.795509075424302 3 -2 1
110 1 1 0.5897 0.5097704028110702 17.940503569210094 12.339441546336207 0 -2 -8
109 1 2 -1.1794 0.5426915665946497 17.1964636610931 12.940752513053948 0 -2 -8
117 1 1 0.5897 2.9225730706763766 17.09709635401616 15.343292066747738 -2 -7 1
619 1 2 -1.1794 4.543683251867831 17.076796951539713 11.83353093343155 -1 1 4
731 1 1 0.5897 3.1042589992502485 20.601542281611657 18.89566206313997 3 0 -5
430 1 2 -1.1794 1.7750948932215296 20.024232360173308 21.909805186125578 -6 -4 -2
732 1 1 0.5897 2.6545403387910755 19.616056805151793 19.953261219433134 3 0 -5
566 1 1 0.5897 4.028639019023839 18.176502097459725 17.96148448715622 -2 3 -7
730 1 2 -1.1794 3.1203992493712187 19.67085401029476 19.11886139529279 3 0 -5
500 1 1 0.5897 0.44686792397066544 17.713803516806877 18.19073396089847 -1 -2 -2
315 1 1 0.5897 2.293336548339554 22.264312622909284 17.05673830291537 -2 -1 1
85 1 2 -1.1794 6.70197665814307 1.699131319229327 4.947475244116465 -1 8 0
828 1 1 0.5897 8.338101891626843 4.3098771630422625 5.037549086613872 1 2 2
35 1 1 0.5897 6.370651242693089 5.644939082778718 1.8914194910380453 -5 3 -1
86 1 1 0.5897 5.775716337456478 1.7246303903597267 5.187678706328103 -1 8 0
87 1 1 0.5897 7.020604317450897 2.583972821755826 5.125858206484827 -1 8 0
572 1 1 0.5897 8.672412241845995 4.97189269627779 2.986363187843958 3 -1 -3
245 1 1 0.5897 5.273665225171291 6.190322124325651 5.072746495270884 -3 4 0
450 1 1 0.5897 8.590824612591122 3.0301143090197136 0.8094753738838494 4 1 -3
34 1 2 -1.1794 7.32384304766118 5.717485722835219 1.940565498824948 -5 3 -1
504 1 1 0.5897 8.371456488930738 5.969999287351134 0.3092260232427353 -2 -1 2
246 1 1 0.5897 6.264668521120326 5.1873944792965725 5.624163995930644 -3 4 0
827 1 1 0.5897 8.45911998341574 4.253047073647921 6.545565886566253 1 2 2
244 1 2 -1.1794 5.621979161589468 5.8434593880288555 5.894099860743125 -3 4 0
498 1 1 0.5897 6.211473579812253 3.1705589168169412 8.655691888003242 0 -1 2
497 1 1 0.5897 6.773319632647831 3.536489051166058 7.298338340492522 0 -1 3
496 1 2 -1.1794 5.957480836521822 3.512417826768231 7.798433424499578 0 -1 3
95 1 1 0.5897 7.735431930777018 3.1115524870077014 10.321248469640027 -2 0 -1
94 1 2 -1.1794 6.948986532609633 2.5659410185069103 10.32945006194765 -3 0 -1
766 1 2 -1.1794 5.195384561890157 6.3768104504400345 10.40956762874611 3 2 3
96 1 1 0.5897 7.267029535669479 1.6897496601875122 10.547148282551616 -3 0 -1
477 1 1 0.5897 8.999869751949769 5.004346855047855 10.977782063791803 4 -1 0
826 1 2 -1.1794 7.834065490562334 4.129843819699431 5.831142785214544 1 2 2
697 1 2 -1.1794 7.825314316781042 5.156247246440263 13.775884383167465 -1 2 -4
698 1 1 0.5897 6.897519212581079 5.38997774731323 13.805782016999858 -1 2 -4
638 1 1 0.5897 9.032539309134604 2.6403150272930356 15.07579960637074 -6 -1 8
604 1 2 -1.1794 5.350909389558506 6.25611359917526 13.891991655337545 -7 2 0
699 1 1 0.5897 7.830240916010289 4.215921614687095 13.596951835380342 -1 2 -4
612 1 1 0.5897 5.773850934944161 3.437752307932952 11.498288011259561 2 8 2
611 1 1 0.5897 5.310560517599557 3.6230032438839452 12.927619314461653 2 8 2
610 1 2 -1.1794 5.330592369935461 4.059250094513007 12.075828789774407 2 8 2
637 1 2 -1.1794 8.715561341707447 2.291461324353784 14.242686551993069 -6 -1 8
666 1 1 0.5897 4.688868740069165 6.1575633360630135 15.451566383961064 6 0 4
38 1 1 0.5897 8.556641133356147 6.318359096890941 14.911408847562774 2 1 -1
390 1 1 0.5897 8.648055408549839 6.138664309786989 12.450936665993387 3 4 5
768 1 1 0.5897 5.259540031618389 5.813903048410189 11.181105976908682 3 2 3
737 1 1 0.5897 8.83083247727608 2.3830988627461718 20.308081840485524 3 -1 3
443 1 1 0.5897 6.06743819589367 5.804659323787605 20.618444588842475 4 5 -3
193 1 2 -1.1794 6.405776566519279 4.762421388048682 17.960685257567583 0 -3 2
834 1 1 0.5897 8.811155853079264 5.527585174689885 19.73185347178973 2 0 0
442 1 2 -1.1794 6.296669716924601 4.8781775961561715 20.691508138071974 4 5 -3
833 1 1 0.5897 8.163940459598072 5.179173714022886 18.4083161112737 2 0 0
195 1 1 0.5897 6.27782220319519 4.694586275356238 18.906890086081546 0 -3 2
832 1 2 -1.1794 9.015177316512842 5.2404198142866 18.841803417976003 2 0 0
194 1 1 0.5897 5.700437590630561 5.3373933962999365 17.663737733610127 0 -3 2
66 1 1 0.5897 6.039921847906291 2.943198299345214 17.294167245655323 7 1 -7
444 1 1 0.5897 5.472264326987451 4.414628015107173 20.544107767939312 4 5 -3
861 1 1 0.5897 6.325287286164769 1.467914170184219 21.159050017303688 -3 -3 0
502 1 2 -1.1794 8.978152367636559 6.394887790495453 21.37101844733897 -2 -1 1
64 1 2 -1.1794 5.927992824514374 2.043056339748242 16.98844915186365 7 1 -7
65 1 1 0.5897 6.769115536039638 1.6225605486245327 17.167176753642373 7 1 -7
815 1 1 0.5897 9.048448950299777 1.3586233086301727 18.06686820198025 -4 7 -2
449 1 1 0.5897 7.432980459150902 3.5929862356963804 21.681021195441105 4 1 -4
448 1 2 -1.1794 7.872519859951735 2.7713911503376876 21.900229458042844 4 1 -4
824 1 1 0.5897 7.767297538666481 8.751486253238028 4.687835179392127 -1 1 2
36 1 1 0.5897 7.4927374885584035 6.659649057177496 1.9482505969816022 -5 3 -1
102 1 1 0.5897 8.689573845164125 9.555917002853016 1.2703624798119502 3 -6 -1
673 1 2 -1.1794 7.3501911208242765 8.43212706533614 1.5326041483089257 -2 -3 -2
823 1 2 -1.1794 8.011798882010277 9.39411730642791 4.021873651316924 -1 1 2
125 1 1 0.5897 5.384767866158123 11.069480688340084 4.546139129623207 1 2 4
675 1 1 0.5897 6.417692963174584 8.529552258040741 1.3396300825197296 -2 -3 -2
674 1 1 0.5897 7.4305329563708185 8.67192147643667 2.4558068484531077 -2 -3 -2
825 1 1 0.5897 7.338585044127504 10.071775307733997 4.0836820202714215 -1 1 2
301 1 2 -1.1794 4.828778621728251 7.574964144821768 3.745184348091681 0 4 8
708 1 1 0.5897 5.142566596100798 11.615962955478697 2.4716938140690514 1 -4 -7
124 1 2 -1.1794 5.9796330698006805 11.473375245744785 3.9142622853705915 1 2 4
660 1 1 0.5897 4.7951445386249825 9.837317752836642 1.0302005026431922 0 -3 0
259 1 2 -1.1794 7.38411644096138 10.663271880089026 7.666276251132096 1 -3 4
261 1 1 0.5897 7.262321875275497 9.868496476778958 7.146861867944037 1 -3 4
132 1 1 0.5897 8.197522892201093 10.249391202382197 9.71743258228385 -5 0 -1
260 1 1 0.5897 6.498905873699514 11.004257273559107 7.7944243364132335 1 -3 4
841 1 2 -1.1794 7.3830428383365 8.009709914808695 6.39438340378953 -4 0 3
842 1 1 0.5897 7.77918640076176 7.802774652775595 7.240851348384942 -4 0 3
843 1 1 0.5897 6.857454368587184 7.238824385648366 6.1805131229736245 -4 0 3
130 1 2 -1.1794 8.38123583309077 9.443190099216851 10.199660209215814 -5 0 -1
561 1 1 0.5897 8.019489954011316 7.722177542401157 9.409861940899422 5 4 1
603 1 1 0.5897 4.931985946304906 8.059558407036327 7.826164841945459 1 3 -1
767 1 1 0.5897 5.530998009724678 7.224169728261989 10.70214971071421 3 2 3
559 1 2 -1.1794 7.712204892685242 6.995164318301978 8.868288369572868 5 4 1
55 1 2 -1.1794 4.986836775143525 11.528876795605374 8.654909270585714 0 0 0
131 1 1 0.5897 9.055081317712483 9.690576595968464 10.832902551523736 -5 0 -1
560 1 1 0.5897 7.014340574964451 6.590370140096672 9.383463296094272 5 4 1
462 1 1 0.5897 6.600092614958762 9.259625619655854 11.071699927583202 1 2 -1
460 1 2 -1.1794 5.820246230996798 8.945346253522128 11.529213278657407 1 2 -1
578 1 1 0.5897 8.788927831962827 8.358970182066372 12.738960178422262 3 1 -1
234 1 1 0.5897 8.308798581220207 10.778921891361625 13.20813698356782 -3 0 0
388 1 2 -1.1794 8.972921779840274 6.724125836166074 11.76686798622323 3 4 5
787 1 2 -1.1794 5.457303021135223 9.126969110976477 14.399912651207176 2 -1 4
461 1 1 0.5897 5.9343375155786235 9.244498522644367 12.431290025495628 1 2 -1
39 1 1 0.5897 8.468115673438817 7.071961576703162 16.221439965063695 2 1 -1
788 1 1 0.5897 5.944711744622816 8.974827105868837 15.209573175476473 2 -1 4
577 1 2 -1.1794 8.585918701088254 9.024054962964787 13.396769683954899 3 1 -1
37 1 2 -1.1794 9.092260870550051 6.778377752313383 15.557739192399731 2 1 -1
579 1 1 0.5897 8.906466281048788 8.653838098952889 14.21923416792636 3 1 -1
762 1 1 0.5897 5.537962242606321 10.991912857342342 14.092891513094356 0 -3 3
605 1 1 0.5897 5.319669492554916 7.177108973572592 13.633033011078497 -7 2 0
232 1 2 -1.1794 8.146447835647944 11.716316818197742 13.102329879608671 -3 0 0
436 1 2 -1.1794 7.210814202699287 11.01899147635366 20.7979559727397 -4 3 -1
688 1 2 -1.1794 7.000726531523046 8.741336769787917 16.63510674750725 6 -2 1
622 1 2 -1.1794 7.454630309861301 8.315553579797648 19.93460711083528 7 -3 1
334 1 2 -1.1794 4.93549691938379 7.270200568555938 20.1346266988439 2 2 2
690 1 1 0.5897 7.803035599951147 9.225871044740128 16.829463584717573 6 -2 1
336 1 1 0.5897 5.717512299933175 7.697334885286858 19.78494114228525 2 2 2
689 1 1 0.5897 6.334068935796967 9.149505184781386 17.187570567183773 6 -2 1
503 1 1 0.5897 8.512950839987008 7.177325736086589 21.07497510844821 -2 -1 1
624 1 1 0.5897 8.128164540138727 8.469673708126088 19.272148368776087 7 -3 1
623 1 1 0.5897 7.267863931533423 9.183128327816485 20.293326838985855 7 -3 1
437 1 1 0.5897 7.408435542139951 11.425180514033979 19.954022640401437 -4 3 -1
511 1 2 -1.1794 4.8844698208156245 10.389280418908282 18.007543042494778 3 0 -8
438 1 1 0.5897 7.9438750276183825 11.267144077786051 21.36126248541676 -4 3 -1
512 1 1 0.5897 5.257874929846394 10.60802472142202 18.861338785692666 3 0 -8
513 1 1 0.5897 4.995376001350796 11.184403574285058 17.486269104715127 3 0 -8
635 1 1 0.5897 6.943969805769765 14.63379222557333 4.8235929880653 -8 4 -2
152 1 1 0.5897 7.156171527262743 16.581536251803982 4.021275773078752 0 1 -1
642 1 1 0.5897 5.737856171543093 14.83665758015836 2.3702724753593474 1 3 -5
640 1 2 -1.1794 5.4894740737047165 14.617478934223291 1.4722105204688543 1 3 -5
641 1 1 0.5897 5.269319744594409 13.686492536116559 1.5045194774142217 1 3 -5
151 1 2 -1.1794 6.975248950482273 15.767852278812711 3.5506881983217347 0 1 0
153 1 1 0.5897 7.8094203448548205 15.53628412703469 3.1422708943253057 0 1 0
813 1 1 0.5897 8.231765893946475 16.62190507467096 0.5588209707328551 -3 5 -4
126 1 1 0.5897 6.100168310445739 12.36701730081963 4.2353942476060205 1 2 4
634 1 2 -1.1794 7.264888209244311 14.133190958836531 5.573708944534894 -8 4 -2
609 1 1 0.5897 8.744809656934057 15.390969990764466 5.835976181408369 6 1 3
705 1 1 0.5897 6.441854455052363 14.899436545163628 9.628913544111986 3 -4 -1
114 1 1 0.5897 6.250752557497105 16.51630258038901 7.469113456120441 -5 1 3
703 1 2 -1.1794 6.392214521866934 14.395647887788844 10.441331551001642 3 -4 -1
56 1 1 0.5897 5.072013155417576 11.960123699205683 9.50522073583527 0 0 0
20 1 1 0.5897 9.067076690287385 12.71163715747359 10.20243202544497 -5 -2 -1
636 1 1 0.5897 6.945157987198738 14.613655171734672 6.3373860462489295 -8 4 -2
112 1 2 -1.1794 6.473674802511423 15.619546972009063 7.718893479147083 -5 1 3
113 1 1 0.5897 5.70094858551937 15.105818468797604 7.483804934923602 -5 1 3
807 1 1 0.5897 8.759085788567393 13.1355111802829 6.544938164332483 4 -1 -5
21 1 1 0.5897 7.566055177539561 12.906313465936933 10.23384389169483 -5 -2 0
19 1 2 -1.1794 8.24324262324041 12.23210229739626 10.289600494289934 -5 -2 0
704 1 1 0.5897 6.898804274176533 14.907126020787878 11.07222828801451 3 -4 -1
806 1 1 0.5897 8.612383630011173 11.863318334319901 7.352435018771138 4 -1 -5
761 1 1 0.5897 6.622643894068176 12.033264482810257 13.91676133387712 0 -3 3
433 1 2 -1.1794 8.05107959581198 14.132000946267915 14.927084633751308 -2 3 -2
59 1 1 0.5897 5.8615466239796055 14.815680957871072 14.270198741666166 3 -4 -2
589 1 2 -1.1794 4.904115220457071 12.405449104500283 11.458205635636642 -2 4 0
423 1 1 0.5897 4.906625867513659 12.508500760216233 15.512294565614718 -6 1 6
58 1 2 -1.1794 5.398714231109309 15.646052037722848 14.158047091147424 3 -4 -2
435 1 1 0.5897 7.880301509970905 14.938115701367781 15.414181558499017 -2 3 -2
434 1 1 0.5897 8.697971583627563 14.382597075463776 14.267553044013074 -2 3 -2
146 1 1 0.5897 8.841371590672127 12.734291671675988 15.89043301717858 1 2 -6
620 1 1 0.5897 4.887893517914367 16.556153004635956 12.559288641388875 -1 1 4
398 1 1 0.5897 7.926851004656299 16.9308406462346 11.268967957514477 8 2 -6
590 1 1 0.5897 5.408126966410223 13.205070335522818 11.307118865592205 -2 4 0
397 1 2 -1.1794 7.840600381486236 16.268686978316964 11.954802315333987 8 2 -6
591 1 1 0.5897 5.070395792252232 12.186601347372621 12.375104784566783 -2 4 0
399 1 1 0.5897 7.880416482939893 16.763972164489203 12.772945884692376 8 2 -6
60 1 1 0.5897 4.735366698165225 15.64614494159168 14.848137941976868 3 -4 -2
760 1 2 -1.1794 5.681714415853004 11.937844102585592 14.0644499488102 0 -3 3
233 1 1 0.5897 7.991528437502528 11.828694460994745 12.164435993567611 -3 0 0
62 1 1 0.5897 8.305444360282154 14.583132175747412 20.87978654796837 -1 -1 5
770 1 1 0.5897 5.904727063935512 15.241984969572687 17.612185001358185 3 0 -2
769 1 2 -1.1794 5.353435515457573 14.671640969497671 18.147956747650188 3 0 -2
104 1 1 0.5897 6.742479898677276 16.628028461531557 20.163367612202762 2 1 6
855 1 1 0.5897 8.047242191164552 16.367910354181635 17.23614507687046 -1 0 -1
61 1 2 -1.1794 7.566139208024477 15.155871820372472 21.083891385787616 -1 -1 5
419 1 1 0.5897 6.811307361208589 13.378597042172169 18.46617686516508 -4 -1 5
418 1 2 -1.1794 7.24114864696025 12.525695663558322 18.530235796986393 -4 -1 5
420 1 1 0.5897 7.872145763444263 12.5202864803898 17.810468796290643 -4 -1 5
771 1 1 0.5897 5.01203541628594 14.021782576864888 17.533638078416264 3 0 -2
853 1 2 -1.1794 7.2901236656718185 16.40975947378952 16.65195003081759 -1 0 -1
63 1 1 0.5897 7.031190090988275 14.648770782022137 21.69460321145022 -1 -1 5
723 1 1 0.5897 5.451369847950688 11.874921290408047 20.3207118141175 1 3 0
254 1 1 0.5897 6.924939293918488 20.567563154780537 2.826829118763545 -2 5 -5
581 1 1 0.5897 8.399831335155652 18.20588619450796 4.384897112157632 -1 -4 1