LAMMPS (30 Jul 2021)
  using 1 OpenMP thread(s) per MPI task
echo both

include		in.partitions
variable        pid world 0
include		in.temp
variable        temperature equal 230
variable	tempDamp equal 100.0
include		in.pressure
variable        pressure equal 5000
variable        pressureDamp equal 1000.0 # This is 1 ps
include		in.seed
variable        seed world 745823

units		real
atom_style	full
include		in.box
box tilt large
read_data       iceII.data
Reading data file ...
  triclinic box = (0.0000000 0.0000000 0.0000000) to (23.340000 21.468634 43.717812) with tilt (-9.1571470 3.9466400 5.9740430)
  4 by 4 by 8 MPI processor grid
  reading atoms ...
  2592 atoms
  scanning bonds ...
  2 = max bonds/atom
  scanning angles ...
  1 = max angles/atom
  reading bonds ...
  1728 bonds
  reading angles ...
  864 angles
Finding 1-2 1-3 1-4 neighbors ...
  special bond factors lj:    0        0        0       
  special bond factors coul:  0        0        0       
     2 = max # of 1-2 neighbors
     1 = max # of 1-3 neighbors
     1 = max # of 1-4 neighbors
     2 = max # of special neighbors
  special bonds CPU = 0.018 seconds
  read_data CPU = 0.057 seconds
include 	in.setup
variable	out_freq equal 500
variable	out_freq2 equal 500

timestep	2.0

neigh_modify    delay 7 every 1

include		in.tip4p
# This is TIP4P/Ice

# create groups ###
group ox type 2
864 atoms in group ox
group hy type 1
1728 atoms in group hy

# set charges - beside manually ###
set group ox charge -1.1794
Setting atom values ...
  864 settings made for charge
set group hy charge 0.5897
Setting atom values ...
  1728 settings made for charge

# ### TIP3P Potential Parameters ###
pair_style lj/cut/tip4p/long 2 1 1 1 0.1577 8.5
pair_coeff 1 1*2 0.000 0.000
pair_coeff 2 2 0.21084 3.1668
bond_style  harmonic
bond_coeff  1 450 0.9572
angle_style harmonic
angle_coeff 1 55 104.52
kspace_style pppm/tip4p 1.0e-5
pair_modify tail yes

thermo          ${out_freq}
thermo          500
thermo_style 	custom step temp pe etotal epair emol press lx ly lz xy xz yz vol pxx pyy pzz pxy pxz pyz cella cellb cellc cellalpha cellbeta cellgamma

restart 	${out_freq} restart.lmp.${pid} restart2.lmp.${pid}
restart 	500 restart.lmp.${pid} restart2.lmp.${pid}
restart 	500 restart.lmp.0 restart2.lmp.${pid}
restart 	500 restart.lmp.0 restart2.lmp.0


include         in.dump
dump            myDump all atom ${out_freq2} dump.water.${pid}
dump            myDump all atom 500 dump.water.${pid}
dump            myDump all atom 500 dump.water.0
dump            myDump2 all dcd ${out_freq2} dump.dcd
dump            myDump2 all dcd 500 dump.dcd
dump_modify     myDump append yes
dump_modify     myDump2 append yes


timer           timeout 05:00:00 every 1000
New timer settings: style=normal  mode=nosync  timeout=05:00:00

fix 		1 all shake 1e-6 200 0 b 1 a 1
       0 = # of size 2 clusters
       0 = # of size 3 clusters
       0 = # of size 4 clusters
     864 = # of frozen angles
  find clusters CPU = 0.002 seconds
fix             2 all nph tri ${pressure} ${pressure} ${pressureDamp}
fix             2 all nph tri 5000 ${pressure} ${pressureDamp}
fix             2 all nph tri 5000 5000 ${pressureDamp}
fix             2 all nph tri 5000 5000 1000
fix             3 all temp/csvr ${temperature} ${temperature} ${tempDamp} ${seed}
fix             3 all temp/csvr 230 ${temperature} ${tempDamp} ${seed}
fix             3 all temp/csvr 230 230 ${tempDamp} ${seed}
fix             3 all temp/csvr 230 230 100 ${seed}
fix             3 all temp/csvr 230 230 100 745823
velocity 	all create ${temperature} ${seed} dist gaussian
velocity 	all create 230 ${seed} dist gaussian
velocity 	all create 230 745823 dist gaussian

run             500000
PPPM initialization ...
  extracting TIP4P info from pair style
  using 12-bit tables for long-range coulomb (../kspace.cpp:340)
  G vector (1/distance) = 0.36656857
  grid = 30 40 60
  stencil order = 5
  estimated absolute RMS force accuracy = 0.0046837777
  estimated relative force accuracy = 1.4105057e-05
  using double precision FFTW3
  3d grid and FFT values/proc = 4864 640
Neighbor list info ...
  update every 1 steps, delay 7 steps, check yes
  max neighbors/atom: 2000, page size: 100000
  master list distance cutoff = 10.8154
  ghost atom cutoff = 10.8154
  binsize = 5.4077, bins = 7 6 9
  1 neighbor lists, perpetual/occasional/extra = 1 0 0
  (1) pair lj/cut/tip4p/long, perpetual
      attributes: half, newton on
      pair build: half/bin/newton/tri
      stencil: half/bin/3d/tri
      bin: standard
Per MPI rank memory allocation (min/avg/max) = 9.434 | 9.448 | 9.454 Mbytes
Step Temp PotEng TotEng E_pair E_mol Press Lx Ly Lz Xy Xz Yz Volume Pxx Pyy Pzz Pxy Pxz Pyz Cella Cellb Cellc CellAlpha CellBeta CellGamma 
       0          230   -13874.649   -12690.642   -13874.649            0   -1113.3695        23.34    21.468634    43.717812    -9.157147      3.94664     5.974043     21906.03   -4976.9896   -3267.7135    4904.5948    1895.0339    3754.2693    1565.7701        23.34        23.34    44.300251    84.888832    84.888832        113.1 
     500    240.81952   -12821.526   -11581.821   -12821.526            0    5486.9523    23.334843    21.448173    43.514671   -9.2038491    3.7323468    5.6188735    21778.647     5951.257    4853.5226    5656.0775    689.52773   -196.04564    721.01319    23.334843    23.339558    44.034404    85.190867    85.137788    113.22516 
    1000    233.38318   -12800.255   -11598.832   -12800.255            0    4620.7859    23.343991    21.512772    43.467315   -9.2060452    3.6914305    5.7931646    21829.023    4886.1316    4067.5796    4908.6466   -267.27741    643.19565    536.62631    23.343991      23.3998    44.006759    84.950011    85.188189    113.16773 
    1500    235.04562   -12762.929   -11552.947   -12762.929            0    5561.0292    23.471712    21.332731    43.285553   -9.1529264    3.7875741    5.6404369    21673.757    5226.5223    6117.0959    5339.4692   -672.84272   -74.899703   -375.19463    23.471712     23.21339    43.815515     85.16895    85.040953    113.22202 
    2000    236.95635   -12805.794   -11585.976   -12805.794            0    5206.5646    23.326197    21.450312    43.376285   -9.2822692    3.5343054    5.4691952    21703.507    5530.3849    4739.0702    5350.2387    101.70568    24.845663    576.34352    23.326197    23.372557    43.862347    85.271498    85.378256    113.39975 
    2500    232.96838   -12753.745   -11554.457   -12753.745            0    6299.3202    23.312059    21.519926    43.189106     -9.09929    3.7963695     5.947513    21666.842    6949.8702    6103.6656    5844.4248   -481.18741    68.389064   -364.92153    23.312059    23.364595    43.761675    84.756316    85.023278    112.92014 
    3000    230.55985   -12774.287   -11587.398   -12774.287            0    6587.4943    23.321416    21.414101    43.241345   -9.3081846    3.5832701    5.5554684    21595.037    7055.7703    6566.8362    6139.8764   -590.85067    470.44587   -405.58158    23.321416    23.349647    43.743765    85.191953    85.301352     113.4934 
    3500    224.90986   -12781.812   -11624.007   -12781.812            0    5544.3456    23.358609    21.337236    43.495848   -9.1644932    3.7052179    5.4619084    21678.686    4512.9812    6536.5052    5583.5504    -91.16728    75.473244    1205.3653    23.358609    23.222093    43.993748    85.363303    85.168742    113.24386 
    4000    223.32689   -12792.762   -11643.107   -12792.762            0    5054.2242    23.324975    21.418391    43.575978   -9.1716081    4.0438084    5.8772733    21769.837    5299.4695    4810.5092    5052.6939   -332.39048   -233.65577   -278.82827    23.324975    23.299483    44.156094    85.048833    84.745499    113.18118 
    4500     228.0714   -12771.767   -11597.687   -12771.767            0    5277.9275    23.168729    21.530436    43.654102   -9.2183154    3.2866995    5.8746607    21776.099    6186.2998    5307.7449    4339.7376   -99.047705    820.92858    -531.0435    23.168729    23.420867    44.170065     84.66503     85.73267    113.17832 
    5000    230.96264    -12769.29   -11580.327    -12769.29            0    5466.2538       23.284    21.476193    43.543793   -9.1650039    3.8698998    5.4953088    21774.147    6163.2891    4551.2732    5684.1991    222.38986   -69.721315    802.20069       23.284    23.350036    44.059465    85.397608    84.961014    113.11045 
    5500    227.79824   -12796.261   -11623.588   -12796.261            0    5127.8481    23.457329    21.350206    43.407627    -9.286655    3.6031345    6.0952273    21739.356    5206.4952    4637.7433    5539.3057   -824.00897    909.55067   -555.80957    23.457329    23.282467     43.98132    84.582747    85.300822     113.5075 
    6000    232.30649   -12737.184   -11541.303   -12737.184            0    5626.8228     23.38792    21.432325    43.401269    -9.127398    3.9924288     5.331447    21755.212    5254.8838     5568.771    6056.8134    526.04957   -589.09284    717.81586     23.38792    23.294934    43.909383    85.636431    84.783218    113.06773 
    6500    222.72358   -12765.155   -11618.605   -12765.155            0    4783.8091     23.24799    21.594699    43.341099   -9.2636827    3.5612118    5.7950376    21758.677     4730.045    3915.3288    5706.0533     303.5118    347.06908    208.37783     23.24799    23.497805     43.87158    84.871414    85.343975    113.21834 
    7000    227.48779   -12782.958   -11611.883   -12782.958            0    4117.2919    23.393234    21.532585    43.329207   -9.1462447    3.8065995    5.7790076    21825.649    3847.2687    4189.7969    4314.8101   -3.0500795   -566.64295   -383.67081    23.393234    23.394572    43.878324    84.991358    85.023133    113.01399 
    7500    235.47404   -12800.225   -11588.038   -12800.225            0    3895.0488    23.489395    21.325372    43.606053   -9.2922366    3.7511261    5.5333515    21843.148    3213.7977    4143.2191    4328.1295    213.20214   -327.40978    617.23041    23.489395    23.261925    44.115494    85.352758    85.122269     113.5445 
    8000    230.09188    -12794.38     -11609.9    -12794.38            0    4267.3006     23.31899    21.430119    43.751015   -9.2332843    3.6225152    5.7471298    21863.639    4667.7768    4840.2025    3293.9225    488.31351     176.6031   -329.75801     23.31899      23.3346    44.275314     85.01841    85.306931    113.30906 
    8500    226.91185   -12797.241   -11629.131   -12797.241            0    4389.9572    23.197284    21.591678     43.67811   -9.0709845    3.9077698    5.6481662     21876.98    5316.4787    3926.3434    3927.0495   -346.11821   -602.50211   -128.40757    23.197284    23.419721    44.214813    85.207897    84.929499      112.788 
    9000     231.2025   -12730.768    -11540.57   -12730.768            0    4958.0154    23.287614    21.424242    43.757517   -9.2698579    3.5433797    5.8240998    21831.477    6270.8626    5439.8528    3163.3308    33.134657    -371.2951   -809.62361    23.287614    23.343701    44.285392     84.89818    85.410723    113.39721 
    9500    231.81518   -12776.523   -11583.171   -12776.523            0    4627.6917    23.364847     21.44228    43.532436   -9.1225523    3.8657187    5.7162525    21809.559    4592.6086    4701.5431    4588.9233   -582.11464    94.252384   -12.680885    23.364847    23.302196    44.075984    85.123776    84.968364    113.04718 
   10000    228.44663   -12761.088   -11585.077   -12761.088            0    5246.2884    23.417859    21.496664    43.197767   -9.3405235    3.7042663    5.5523204    21746.007     4339.508    5233.7125    6165.6448   -156.85596    750.00348    1362.4741    23.417859    23.438258    43.710375    85.254491    85.138598    113.48545 
   10500    234.63089    -12741.04   -11533.193    -12741.04            0    4978.4436    23.417368    21.532582      43.2259   -9.1992485    3.5460655    5.7281719    21796.072    4386.6218    3941.9817    6606.7273   -509.16065    1356.3791    543.94285    23.417368    23.415343    43.747742    84.919054    85.350669    113.13336 
   11000    226.99971    -12758.46   -11589.898    -12758.46            0     5410.782    23.475199    21.453004    43.145126   -9.2270733    3.9616858    5.5496238    21728.469    4869.5736    5514.8919    5847.8806   -50.128701    -122.1166   -208.96053    23.475199    23.353164    43.680604    85.361006    84.796312    113.27285 
   11500    229.21512   -12763.676   -11583.709   -12763.676            0    4890.6056    23.435394    21.492397    43.145297   -9.3166089    3.3220053    5.6736565    21731.544    4687.3989    3910.5486    6073.8695   -63.031934    165.96603    381.89178    23.435394    23.424823    43.643359    84.893775     85.63459    113.43596 
   12000     230.6943   -12726.535   -11538.953   -12726.535            0    5093.0455    23.314235    21.561224    43.309764   -9.1574195    3.9501376     5.628664    21771.102    6034.6798     3517.881    5726.5758   -668.27687   -875.99054    -214.0561    23.314235    23.425301    43.852265    85.243123    84.831888    113.01176 
   12500    236.65633   -12789.604   -11571.331   -12789.604            0    3805.9244    23.384345    21.411817    43.669393   -9.1810199    3.5961835     5.630336    21865.323    3703.3921    3868.7961    3845.5848    408.42952   -483.16986   -123.86864    23.384345    23.297147    44.177472    85.120828    85.330779    113.20882 
   13000    233.32343   -12777.422   -11576.306   -12777.422            0    3215.3813    23.391787    21.462244    43.732915   -9.2415417    3.9772425    5.7757572    21955.684    3892.7949     3205.058    2548.2911    297.33873   -863.65564   -251.23039    23.391787    23.367371    44.291598     85.16666    84.848084    113.29648 
   13500    228.01604   -12812.566   -11638.771   -12812.566            0    4319.6852    23.256532    21.456024    43.783765   -9.1872412    3.5526695    5.6287119     21847.78    4707.7136    4037.1859    4214.1559    193.73743   -220.38411    35.372499    23.256532    23.340231    44.286815    85.109007    85.398813    113.18009 
   14000    223.89156   -12796.354   -11643.791   -12796.354            0     4385.513     23.33187    21.481133    43.540534   -9.2019568    3.9600991    5.7167486    21822.297    3941.6187     5327.517    3887.4032    49.323421   -246.92115   -84.358604     23.33187    23.369105    44.092422    85.192194    84.847116    113.18903 
   14500    223.42677   -12780.187   -11630.018   -12780.187            0     4773.387    23.411924    21.447118     43.36091    -9.147714    3.7090496    5.6542199    21772.307    5059.8236    4631.0865     4629.251   -803.58761    -268.3358    184.33542    23.411924    23.316508    43.885029    85.103658    85.151725    113.09942 
   15000    237.36292   -12813.992   -11592.081   -12813.992            0    5205.5136    23.433637    21.421305    43.297621   -9.4267089    3.5193006    5.5063515    21734.501    4819.2711    5037.7804    5759.4892    1110.9645   -257.25605    737.27016    23.433637    23.403742    43.788005    85.254729    85.390089    113.75249 
   15500    232.81382   -12786.802    -11588.31   -12786.802            0     5630.072    23.419441    21.490005    43.151174   -9.0762706     4.008702    5.7266347    21717.291    5387.8448    4810.7864    6691.5849    -478.1222    163.40132   -171.10671    23.419441    23.328073    43.713703     85.12386    84.738381    112.89669 
   16000    239.89334    -12808.21   -11573.273    -12808.21            0    5092.3658    23.322115    21.552558    43.219313   -9.2408212    3.4806507    5.9442384    21724.241    4377.8727    4707.9724    6191.2522    293.24745     787.1544   -407.42688    23.322115    23.450064    43.764802    84.635479    85.438402     113.2076 
   16500    236.52988   -12771.293    -11553.67   -12771.293            0    4993.8956    23.351983    21.432486    43.512011    -9.231552    3.7651742    5.3941641    21777.371    5135.2948    5567.7799    4278.6123    336.99356   -265.52774   -556.63828    23.351983    23.336088    44.006461    85.484371    85.091796    113.30285 
   17000    233.10971   -12793.983   -11593.967   -12793.983            0    4653.5463    23.391975     21.41649    43.555729   -9.1320872    3.7894176    5.7949811    21820.287    3749.1874    5777.9644    4433.4871    41.078147    470.32977   -157.41363    23.391975    23.282205    44.102642    84.999397    85.070915    113.09362 
   17500     223.2246    -12773.79   -11624.661    -12773.79            0    4119.0817    23.323498    21.490863    43.612863     -9.38127    3.5563857    5.6985415    21860.603    3910.7865    4810.6301    3635.8286    199.18597     818.5798    -408.4592    23.323498     23.44921    44.127124    85.060078    85.377285    113.58241 
   18000    232.88173    -12838.34   -11639.497    -12838.34            0    4300.1166    23.277792    21.523554     43.54359   -9.0789994    3.7460104    5.6820464    21816.245    4625.1863    4687.6592    3587.5044   -486.24225    222.41125   -401.08752    23.277792    23.360043    44.072241     85.08053    85.124145    112.87084 
   18500    230.24803   -12800.612   -11615.328   -12800.612            0    4081.7568     23.38504    21.466903    43.565729   -9.3980912    3.8077414    5.8968469    21870.188    4339.6958    3595.5609    4310.0136    905.28367   -478.28181   -307.43797     23.38504    23.433994    44.127593    84.962454    85.049828    113.64354 
   19000    226.30722   -12766.631   -11601.633   -12766.631            0     4367.058    23.452573    21.402381    43.484125   -9.0280939    3.5849682    5.3294037    21826.461      3728.29    5203.0183    4169.8657   -264.37201    432.17539    204.16454    23.452573    23.228611    43.955928    85.410664    85.321861    112.87131 
   19500      234.625   -12808.086    -11600.27   -12808.086            0    5208.4039    23.368666    21.432165    43.404652   -9.3310137    3.8138357    5.8318772    21738.834    5185.8874     5856.824    4582.5002   -364.90742     233.2802   -327.65521    23.368666    23.375319    43.960436    85.008815    85.022985    113.52707 
   20000    224.16422   -12760.755   -11606.789   -12760.755            0    5098.6945     23.14969    21.565685    43.541104   -8.9599692    3.3920785    5.6439288    21737.414    5829.2017    5125.4647     4341.417    368.26233    -530.1158   -545.94316     23.14969     23.35294    44.036211    84.905281     85.58217    112.56159 
   20500    228.99061   -12776.689   -11597.878   -12776.689            0    5080.8691    23.357517    21.424737    43.490756    -9.364773    4.0642374    5.6312341     21764.02    5142.2144     5742.865    4357.5279    470.81496    -240.9398   -413.06005    23.357517    23.382009    44.041738     85.40003    84.705127    113.61018 
   21000    228.11094    -12782.62   -11608.337    -12782.62            0    5307.4554    23.389511    21.389715     43.46444   -9.1251522    3.4764604    5.9899349    21745.041    5890.9759    5347.2957    4684.0945   -134.34728    691.94467   -339.09081    23.389511    23.254856    44.012756    84.595561    85.469627    113.10377 
   21500    224.32706   -12805.258   -11650.453   -12805.258            0    4960.3074    23.353732    21.472074    43.342913    -9.310868    4.1285099    5.1854867    21734.436    5324.8628    4861.5215     4694.538   -201.26824   -914.43641    472.20233    23.353732    23.403893    43.846801    85.926114    84.597163    113.44285 
   22000    229.16616   -12723.658   -11543.943   -12723.658            0    5246.0127    23.292701    21.545804     43.39031   -9.1637957     3.294984     5.847006    21775.859    5178.8546    4626.7344     5932.449   -478.25459    968.88479   -189.56562    23.292701    23.413603    43.906302    84.653737    85.696146    113.04087 
   22500     232.1915   -12776.896   -11581.607   -12776.896            0    5086.6252    23.414769    21.448808    43.336813   -9.2348696    4.2579331    5.9636297    21764.566    4941.2023    4548.7337    5769.9395   -446.18687    318.96986   -246.99007    23.414769    23.352392    43.951953    85.048408    84.440638    113.29449 
   23000    224.42787   -12795.131   -11639.808   -12795.131            0    5071.8026    23.324584    21.353974    43.615567    -9.176101    3.2827365    5.1704077    21723.717    5843.5447    5277.8804    4093.9826   -370.93117   -479.54302    349.19991    23.324584    23.242053    44.043469    85.501654    85.725552    113.25387 
   23500    231.14551   -12796.213   -11606.308   -12796.213            0    4360.1694    23.365047     21.49873    43.415748   -9.2549538    3.7964811    5.8491617    21808.548    4711.1364    3915.5651    4453.8066   -960.77457    498.19153   -298.67918    23.365047    23.406186    43.972186    84.949104    85.047017    113.29132 
   24000    233.23128   -12718.049   -11517.407   -12718.049            0    4586.0378    23.378588    21.484461    43.523986    -8.908242    4.0136022    5.6509781    21861.069    4357.1004    4810.2761    4590.7369   -302.63508   -412.89796    545.19895    23.378588    23.258092    44.072439    85.206682    84.774931    112.52068 
   24500    223.21775     -12782.1   -11633.006     -12782.1            0    4216.8607    23.381807    21.446926    43.535701   -9.5017614    3.4773882    5.5140865    21831.756    3641.7483    4277.8998     4730.934     613.4739    667.59158    455.96883    23.381807    23.457496     44.02107    85.266194    85.469273    113.89507 
   25000    221.57021   -12727.195   -11586.583   -12727.195            0    4276.1215    23.376895    21.523142    43.469741    -9.005896    3.8777259    5.8762709    21871.549    4420.0535    4068.9672    4339.3439   -39.553059    571.60628   -286.80263    23.376895    23.331348    44.036186    84.887609    84.948121    112.70582 
   25500    231.01902    -12804.07   -11614.816    -12804.07            0    4139.6076    23.427272    21.451331    43.453842   -9.3766403    3.8042818    5.5770066    21837.561    4128.5258    3764.1987    4526.0985    883.29775   -612.76022     229.9896    23.427272     23.41113    43.975129    85.321972    85.037147    113.61073 
   26000     234.8043   -12769.763   -11561.023   -12769.763            0    4498.0295    23.400575    21.465479    43.412048   -9.2670646    3.5581775    5.7142627    21806.069    4639.3641    4747.0219    4107.7026    450.63527   -144.33116   -148.46921    23.400575    23.380446    43.930847    84.990712    85.354241     113.3508 
   26500    228.67785   -12820.784   -11643.583   -12820.784            0    5361.4844    23.385441      21.4405    43.264193   -9.0688647    4.3203158    5.7916465    21692.474    4856.3183    5917.7012    5310.4337    318.06374   -1145.2276   -179.41519    23.385441    23.279591    43.863409    85.225331    84.347502     112.9273 
   27000    230.07886   -12759.905   -11575.491   -12759.905            0    5087.1988    23.291937    21.450033    43.564145   -9.2921214    3.1907194    5.6869056    21765.206    5489.5587    4754.2206    5017.8173     1005.882    548.75036    4.9167302    23.291937    23.376216    44.049476    84.855284    85.846148    113.42219 
   27500     230.6723   -12770.123   -11582.654   -12770.123            0     5505.257    23.267363    21.452402    43.561213   -9.1721784    3.8930138    5.4612451     21743.18    5481.4547    5744.1704     5290.146    643.82371   -122.44841      500.451    23.267363    23.330975    44.074483     85.45697    84.932571    113.14959 
   28000    230.88138   -12809.879   -11621.334   -12809.879            0    4880.2553     23.39865    21.422833    43.394391   -9.1420695    3.7209733    6.3493443    21752.105     4654.369    4715.3947    5271.0021    473.56803    321.95227   -895.85099     23.39865    23.291956    44.014009    84.289683    85.150388    113.11008 
   28500    228.91384   -12749.899   -11571.482   -12749.899            0    4048.6165    23.404162    21.452705    43.457598   -9.2846518    3.7553413    5.3675853    21819.303    4324.3752    4208.7837    3612.6907    258.66917   -514.83841    314.40636    23.404162    23.375699    43.948565    85.517962    85.098181    113.40278 
   29000    228.28084    -12817.29   -11642.132    -12817.29            0    4780.4125    23.305825    21.471929    43.515996   -9.1916222    3.7467108    5.7675891    21776.319    5114.2834    5053.1174    4173.8368    -382.6219   -23.671707    8.6099921    23.305825    23.356576    44.056156    85.015674    85.121446    113.17462 
   29500    237.26454   -12806.665    -11585.26   -12806.665            0    4608.2813     23.27117    21.492236     43.63724   -9.1588303    3.7922668    6.1793072    21825.143    4663.3708    5165.9467    3995.5263   -615.16346    38.290812   -937.24731     23.27117    23.362371    44.235437    84.554408    85.082044    113.08108 
   30000    234.43603   -12770.046   -11563.202   -12770.046            0     4845.269    23.326909    21.405735    43.660539   -9.1354856    3.8102687    5.4714655    21801.001    4860.7879    5453.7367    4221.2823   -76.887423    156.18312   -572.77651    23.326909    23.273646    44.166704    85.407046    85.050932     113.1117 
   30500    228.60808   -12804.711   -11627.869   -12804.711            0    4967.9465    23.363718    21.374524    43.642495   -9.2972206    3.6429001    6.0497174    21794.553    5788.8865     4664.271    4450.6822    1011.3972   -69.136995   -162.35185    23.363718    23.308981    44.210148    84.685834     85.27349    113.50747 
   31000    237.25743   -12758.697   -11537.329   -12758.697            0    4384.9406    23.244092    21.542448    43.628948   -9.0373743    3.8456002     5.697599    21846.526    5312.4628    4482.5036    3359.8552     257.1493    -227.5665   -201.24224    23.244092    23.361318    44.167141     85.10821    85.004974    112.75877 
   31500    228.23099   -12770.791    -11595.89   -12770.791            0    5200.3232    23.269564    21.455533    43.521892   -9.3011252    3.7715421    5.4847731    21728.779    6071.2911    4986.4863    4543.1921   -418.74028    142.50357    238.45877    23.269564    23.384842    44.027973    85.398473    85.085883    113.43707 
   32000    235.16906    -12774.39   -11563.773    -12774.39            0    5313.1076    23.450849    21.384784    43.441905   -9.1457755    3.6341612     6.266934    21785.739    3988.0477     6215.536     5735.739    238.71889    21.576097   -1004.4569    23.450849    23.258422    44.041806    84.353831     85.26679    113.15527 
   32500    230.24248   -12749.872   -11564.616   -12749.872            0    5157.7925    23.404947    21.450878    43.355591   -9.2135433    4.0702848    5.5178738    21766.964    4105.4541    6210.7508    5157.1724    114.92057    63.951804    298.67785    23.404947    23.345868    43.894435    85.474187    84.679379    113.24441 
   33000    231.64785   -12757.422   -11564.932   -12757.422            0    4235.4046    23.314568    21.590294    43.420523   -9.2744089    3.3668163    5.6251573    21856.518    4601.2157    3184.4823    4920.5157    887.25304    99.963766    945.35106    23.314568    23.497988    43.912637    84.983771    85.602772    113.24661 
   33500    225.27156   -12777.721   -11618.055   -12777.721            0    4322.6557    23.432112    21.576016    43.184241   -9.1374881     3.997244    5.9901671    21832.726    4480.9225    4486.4117    4000.6328   -897.63202   -91.429018    -1386.988    23.432112    23.431136    43.780575    84.814263    84.761499    112.95276 
   34000    230.17251   -12812.953   -11628.057   -12812.953            0    4138.8275    23.484675    21.357626    43.575102   -9.2509868    3.7462495     5.523797    21856.265    4587.6259    4330.6254    3498.2313    182.90011   -427.13291   -189.47523    23.484675    23.275072    44.083287    85.342225    85.125058    113.41969 
   34500    227.38311   -12816.068   -11645.532   -12816.068            0    4200.3807    23.308521    21.479022    43.522152   -9.1982569    3.5953802    5.7533501    21789.115    4071.1405    4747.0296    3782.9721   -192.88328    292.09237    534.15475    23.308521    23.365708    44.047764    84.955081    85.318047    113.18273 
   35000    222.88043   -12796.745   -11649.388   -12796.745            0    4679.3944    23.213027     21.57874    43.550996   -9.0683644    3.9807392    5.7670961    21815.037    5291.7864    4239.3668      4507.03   -349.20573   -259.51957    580.60145    23.213027    23.406778    44.111166    85.091374    84.822393    112.79435 
   35500    230.19092   -12754.011   -11569.021   -12754.011            0    5118.2743    23.344497    21.383409    43.643949   -9.2814981    3.4089683    5.7234284    21786.402    5361.7634    5596.3625    4396.6969   -132.08804    407.28481   -41.736031    23.344497    23.310864     44.14944    84.941389    85.571538    113.46332 
   36000    230.23229   -12789.341   -11604.137   -12789.341            0    4805.8351    23.421662    21.325213    43.639199   -9.2067094    4.0468644    5.5750942    21796.555    4056.1487    5913.0372    4448.3195   -502.25359   -96.646382    87.453976    23.421662    23.227747    44.179616    85.437405    84.744324    113.35125 
   36500    226.61317   -12755.095   -11588.522   -12755.095            0     5311.182     23.30083    21.490942    43.533639    -9.124828    3.5841056    5.7715359    21799.765      5403.44    5515.0993    5015.0068   -1082.2529    843.11607    258.63924     23.30083    23.347871    44.060574    84.906486    85.334122    113.00557 
   37000    229.63823   -12776.471   -11594.326   -12776.471            0    4345.1941    23.201568    21.650108    43.516721   -9.3102535    3.9090919    5.7007082    21859.165    4760.4687    3911.8048    4363.3089    766.92403    561.22029     299.6112    23.201568    23.567096    44.062275    85.192604    84.910174    113.26928 
   37500    223.24873   -12744.582   -11595.329   -12744.582            0    5516.6182    23.429145    21.390904     43.43236   -9.1013557    3.5143156    5.5887745    21767.022     4903.822    6228.6095     5417.423   -839.89037     532.4016    17.455198    23.429145    23.246622     43.93125    85.081328    85.411676    113.04868 
   38000    226.24612   -12717.605   -11552.921   -12717.605            0     5262.413    23.508488     21.38076    43.349452    -9.376609    4.0541335    5.8697559    21788.707    4870.0057    4894.1289    6023.1045   -55.086423   -306.72049   -541.68697    23.508488    23.346471    43.932505    85.106934    84.705158    113.68003 
   38500    233.98721   -12782.416   -11577.883   -12782.416            0    5214.1765    23.278414    21.522233     43.37638   -9.0020969    3.4438946    5.2331939    21731.716     4985.527    5644.6154    5012.3871   -335.80272    215.98978     217.0904    23.278414    23.329044    43.826442    85.420799    85.493034    112.69808 
   39000    225.82149    -12785.62   -11623.122    -12785.62            0    4504.4878    23.271335    21.593553    43.338625   -9.3587639    3.8303558    5.9340156    21778.128    4319.1925    4827.8906    4366.3803    939.83494   -96.059781    460.90587    23.271335      23.5344     43.91037    84.876323    84.995658    113.43217 
   39500    229.68943   -12746.293   -11563.884   -12746.293            0    4968.2136      23.4031    21.411301    43.455725   -9.0975964    3.7730293    5.6729263    21775.265     4996.605    5067.4289    4840.6068   -689.75617   -637.26243   -529.46407      23.4031    23.263922    43.986564    85.115055    85.079301    113.02049 
   40000    227.10972   -12786.862   -11617.734   -12786.862            0    5426.7507    23.424673    21.319398    43.511212   -9.3207471     3.876795    5.5233814    21729.495    5379.0039    6222.7827    4678.4655    57.258765   -554.62769    79.658706    23.424673    23.267854    44.031385     85.43055    84.948785    113.61474 
   40500    232.88232   -12829.203   -11630.357   -12829.203            0    6356.7979     23.20097    21.478751     43.37647   -9.0743467    3.6674115    5.7953693    21615.704    6730.1837    6511.3867    5828.8232    483.56752    -200.6927    41.050647     23.20097    23.316958    43.915309    84.890297    85.209593    112.90309 
   41000    221.34693   -12782.134   -11642.671   -12782.134            0    6704.7144    23.147702    21.493529    43.473999   -9.1886849     3.804106    5.7395767    21629.436    7593.6932    6870.3037    5650.1462    476.80508    97.911133     167.3373    23.147702     23.37528    44.015935    85.070665    85.041989    113.14716 
   41500    235.77315   -12763.641   -11549.914   -12763.641            0    5309.7238    23.367533    21.335972    43.596625   -9.2102003    3.5148463    5.6530069    21735.927    5049.8894    6417.0391    4462.2427    447.37996    615.25672   -3.8449942    23.367533    23.239008    44.101886    85.060861    85.428774    113.34864 
   42000    231.74243   -12804.911   -11611.933   -12804.911            0    5149.7619    23.395546    21.326169    43.617508   -9.0898391    4.2073922    5.6241978    21762.405     5824.178    4943.4492    4681.6585      -793.06   -481.41109    284.60827    23.395546    23.182551    44.179415    85.424749    84.535199    113.08513 
   42500    228.75865   -12783.219   -11605.602   -12783.219            0    4997.8907    23.222813    21.490718    43.576822   -9.2160312    3.5262763    5.5978548    21748.099    5737.2392    5120.4687    4135.9643    247.57542    57.041786   -689.20446    23.222813     23.38346    44.076184    85.112923    85.411197    113.21148 
   43000    232.85466   -12769.827   -11571.124   -12769.827            0    5416.5704    23.292567     21.51623    43.458158   -9.1380512    3.7964332    5.8166858    21779.848    5387.8267    5116.2275     5745.657    305.76311    -450.7348    97.799833    23.292567    23.376316    44.009751    84.955467    85.051318    113.01118 
   43500    233.98083   -12771.444   -11566.943   -12771.444            0    5262.7111    23.462166    21.269244    43.584332   -9.2524259    3.6690785    5.3504679    21749.564    4972.4687    5755.5569    5060.1078    131.00875   -206.41382     94.11722    23.462166    23.194571     44.06454    85.518963    85.223679    113.50973 
   44000    232.20665   -12810.439   -11615.072   -12810.439            0    5297.0775    23.377607     21.43893    43.396278   -9.2419863    3.5682102    5.6991672    21749.819    5544.5025    4970.1856    5376.5444    84.354949    180.02304     325.0523    23.377607    23.346135    43.914115    85.008277    85.339334    113.32012 
   44500    227.75932    -12772.29   -11599.817    -12772.29            0    4343.6515    23.354493    21.540398    43.418636   -9.1637326    4.2270143    5.8306039    21842.399    3772.4971    4525.7475    4732.7098   -50.821143    -720.0633   -163.19566    23.354493    23.408604    44.011834    85.163794    84.488665    113.04591 
   45000     224.5328   -12791.822   -11635.958   -12791.822            0    4437.1868    23.380262    21.352939    43.649871   -9.3207078    3.1478557    5.6283673    21791.645    4392.0651    4688.5906    4230.9046   -92.460955    679.07485    298.62352    23.380262    23.298575    44.123676    84.930387    85.908949    113.58161 
   45500    232.85235   -12806.913   -11608.222   -12806.913            0    4859.4629    23.338965     21.47433    43.426644   -9.2129275    4.1457135    5.6726483     21764.94    4314.5616    4910.2712    5353.5557    34.896167    128.91771   -98.761845    23.338965    23.367175    43.991355    85.333937    84.592463    113.22032 
   46000    235.11754   -12781.469   -11571.117   -12781.469            0    5340.6301    23.190715    21.551784    43.454515   -8.9458786    2.9918885    5.8847716    21718.622    5903.1519    4770.6632    5348.0754   -252.84331    675.75643    48.894576    23.190715    23.334698     43.95312    84.401233    86.096859    112.54273 
   46500    235.72977   -12791.623    -11578.12   -12791.623            0    5705.4029    23.326458    21.441858    43.324035   -9.3484576    4.1643711    5.5654593    21669.062    5151.7093    6334.7285    5629.7709     558.0126    -583.6926   -297.21646    23.326458    23.391172    43.878108    85.506942    84.553992    113.55677 
   47000    227.76754   -12791.521   -11619.006   -12791.521            0    5630.1777     23.40989    21.322442    43.480105    -9.074233    3.6411962    5.5941991    21703.357    5038.7934    5482.7816     6368.958    3.2509912    490.15631    728.69283     23.40989    23.173007    43.989463    85.146842     85.25195    113.05324 
   47500    228.06036   -12752.756   -11578.734   -12752.756            0    4719.9115     23.34465    21.489185    43.480235   -9.4305978    3.9719133    5.9283138    21812.186    4273.3734    4979.9724    4906.3888    659.51691   -478.27234    110.39305     23.34465    23.467451    44.061909    85.010219    84.828113    113.69442 
   48000    227.05461   -12789.022   -11620.177   -12789.022            0    4579.0031    23.200305    21.525902    43.635247   -8.9613135    3.5978202    5.4912859    21791.769    5744.4389    3966.7065    4025.8638   -473.91626   -59.845711   -215.52053    23.200305    23.316723    44.126334    85.207315    85.323224    112.60214 
   48500    230.40479    -12787.81   -11601.719    -12787.81            0    5184.1283      23.3425    21.414577    43.564412   -9.3651846    3.6970394    5.7818211    21776.533    5617.7099    5345.6717    4589.0032   -257.33283    206.51334   -583.24225      23.3425    23.372865     44.10165    85.036087    85.191254    113.62108 
   49000    234.24467   -12766.036   -11560.178   -12766.036            0    4866.6692    23.433504    21.258483    43.770297   -8.8833602    3.8453113    5.5711865    21804.644     5066.544    5868.1606    3665.3031    -674.6436    449.00523   -58.492649    23.433504    23.039904     44.29067    85.262743    85.019316    112.67877 
   49500    232.18152   -12753.957   -11558.719   -12753.957            0    5005.9742    23.312147    21.460866    43.525896   -9.2659861    3.7113177    5.6597488    21775.957    5347.6859    5403.0572    4267.1795   -371.74905   -55.627565   -185.52146    23.312147    23.375784    44.048953    85.149028    85.166849    113.35285 
   50000    231.32732   -12758.115   -11567.274   -12758.115            0    5827.6605    23.266287    21.456917    43.516696   -9.2339845    3.7470776    5.8042563    21724.527    6076.8764    5701.2401    5704.8651    512.59757    135.57339   -338.07998    23.266287     23.35949    44.061694    84.986858    85.121582    113.28463 
   50500    224.05353   -12760.455   -11607.059   -12760.455            0    5781.5374    23.341594    21.347197    43.579711   -8.9526727    3.9251854    5.3682431    21714.793    5595.5366     6226.666    5522.4096   -1056.6918    610.12556    678.82023    23.341594    23.148502    44.084196    85.534362    84.891712     112.7524 
   51000    232.77178   -12782.188   -11583.912   -12782.188            0    5204.9302    23.364872    21.402809    43.512261     -9.34436    3.6850498    5.9576987    21759.346    5114.5771    5736.1282    4764.0853    686.92851   -108.43327   -414.91985    23.364872    23.353742    44.072561    84.811591    85.203714    113.58584 
   51500    231.35652   -12758.824   -11567.833   -12758.824            0    5813.8582    23.273168    21.466536    43.471463   -9.0562572    3.6444089    5.5375565    21718.096     5488.235    6884.2477    5069.0919   -472.10132    540.32409   -360.91804    23.273168    23.298669    43.974019    85.192341    85.246079    112.87381 
   52000    228.73398   -12791.833   -11614.343   -12791.833            0    5618.0887    23.334792    21.447301    43.342413   -9.3338687    4.0078596    5.6685161    21691.504    5620.3835    5394.9036    5838.9789    13.541917    565.58696    10.521639    23.334792    23.390336    43.894872    85.297874    84.761263    113.51868 
   52500    238.83985   -12786.036   -11556.523   -12786.036            0    4747.1957    23.444122    21.436737     43.34564    -9.123175    3.4006721    5.9313666    21784.021    4442.4275    5050.0045     4749.155   -942.11304    1012.5586   -306.67203    23.444122    23.297339    43.881547     84.60478    85.555314    113.05392 
   53000    223.80637   -12770.234   -11618.111   -12770.234            0    4639.0073    23.365388    21.467168    43.465081   -9.2502018    3.9727762    5.4670824    21801.593    5092.3206    5015.2006    3809.5006   -281.66035   -295.82577    -500.9741    23.365388    23.375319     43.98733    85.503312    84.818192    113.31121 
   53500    230.79673   -12787.291   -11599.182   -12787.291            0    3975.6028    23.288209    21.568455     43.53207   -9.1735924    3.3784805    5.8684458    21865.754    4844.4859    3367.7304     3714.592    990.99016     128.0037     447.5104    23.288209    23.438282    44.055578    84.688864    85.601853    113.04124 
   54000    231.68164   -12756.686   -11564.022   -12756.686            0    4186.2765    23.424834    21.524104    43.327727   -9.1699029    4.2206366     5.833507    21845.778    3808.2865    4608.3856    4142.1574    818.13314   -823.20849   -240.16782    23.424834    23.396029    43.921926    85.151266    84.485706    113.07543 
   54500    227.07272   -12799.312   -11630.374   -12799.312            0    5068.4502    23.364614    21.352181    43.559724   -9.2729409    3.4870153    5.3374758    21731.314    5295.7969    5149.5182    4760.0354    -370.5395    308.18827    330.49239    23.364614    23.278812    44.023829    85.431285    85.456988     113.4746 
   55000    227.98975    -12744.77   -11571.111    -12744.77            0    5112.3001    23.315894    21.498564    43.410503   -9.0413411      4.10254    6.0300046    21759.872    5910.7357     4070.677    5355.4877   -712.51542   -843.39543   -111.86539    23.315894    23.322395      44.0189    84.828121      84.6523    112.80946 
   55500    231.82391   -12811.996   -11618.599   -12811.996            0    5568.8015    23.299737    21.509372    43.312758   -9.2303887    3.7229236    5.5989797    21706.739    5966.3857    5321.3873    5418.6316   -673.24585    11.811216    265.19736    23.299737    23.406263    43.831538    85.187744    85.127592    113.22578 
   56000    226.06604    -12725.82   -11562.064    -12725.82            0    4674.8717    23.428184    21.410267    43.448819   -9.2541684    3.3642141    5.5507546    21794.088    4708.7978    4204.2445    5111.5728    71.852058   -28.525821   -136.84305    23.428184    23.324647    43.930954    85.089582    85.608013    113.37547 
   56500    229.49857   -12812.441   -11631.015   -12812.441            0    4283.7942    23.514999     21.46972    43.268579   -9.2036425    4.4517596    5.9378549    21844.594    3536.1801    4535.0714    4780.1312    304.84539   -530.29998     -473.837    23.514999    23.359279    43.900412    85.160663    84.179867    113.20385 
   57000    232.14259   -12807.156   -11612.119   -12807.156            0    5148.8634     23.33707    21.436222    43.455124   -9.2362669    3.6020639    5.5022906      21738.8    5394.7823    5103.2998    4948.5081    99.855906    347.37089    412.33719     23.33707    23.341385    43.949947     85.26515    85.298861    113.30986 
   57500    227.40819   -12768.527   -11597.862   -12768.527            0    5657.9755    23.325177    21.454636    43.391403   -9.2803424    3.8540801     5.805047    21714.498    5746.9545     5382.005    5844.9671    366.46414   -130.44715   -180.68251    23.325177     23.37576    43.947314    85.042395    84.968826    113.39121 
   58000    232.20503   -12802.777   -11607.418   -12802.777            0    5414.4724    23.329948    21.454003    43.383375   -9.0350854    3.7180736    5.9098181    21714.281    4802.5891    5046.8144    6394.0137   -1028.0402    99.365891    406.02851    23.329948    23.278897    43.941635    84.772613    85.146176    112.83778 
   58500    237.38254   -12742.443   -11520.431   -12742.443            0    5746.1312    23.322293    21.392884    43.553527   -9.4281505    3.5936508     5.383522     21730.21    5928.3628    6354.4799    4955.5509   -92.709361    492.02728    333.89661    23.322293    23.378313    44.031878    85.470828    85.318612    113.78377 
   59000    221.79331   -12768.054   -11626.293   -12768.054            0    5267.6607    23.359876    21.423121    43.442594   -9.0054401    3.7038139    5.8003434    21740.475    4921.6807     5106.302    5774.9993   -220.61002    303.35031   -18.774485    23.359876    23.238935    43.984329    84.897536    85.169541    112.79998 
   59500    229.65742   -12754.756   -11572.512   -12754.756            0    4436.6105    23.419715       21.457    43.368231   -9.3011313    3.9666475    5.8690523    21793.266    3899.1283    4736.1476    4674.5554    337.77512    94.421969   -203.77094    23.419715    23.386191    43.942958    85.029571    84.820969    113.43566 
   60000    230.07802   -12829.332   -11644.923   -12829.332            0    4530.5227    23.266692    21.452974    43.600332   -9.1471763    3.5052508    5.3546823    21762.658    4522.3789    4645.3645    4423.8248    319.66627    343.03785    1203.9619    23.266692    23.321684    44.067543    85.378303     85.43772    113.09256 
   60500    224.96737     -12795.6     -11637.5     -12795.6            0    4168.4491    23.293504    21.504095     43.62389   -9.3085147    4.2182196     6.074585    21851.456    3905.5551    5016.1703     3583.622   -38.892581   -425.79509   -382.68157    23.293504     23.43234     44.24633    84.944499    84.529404    113.40642 
   61000    228.06393   -12794.147   -11620.106   -12794.147            0    4916.8894    23.395817    21.322974      43.6747   -9.1376123    3.5583484    5.6441077    21787.927    4765.0257    5923.4608    4062.1818    366.16296   -626.37008   -502.52654    23.395817    23.198387    44.181412    85.083878    85.380424    113.19676 
   61500    240.41286    -12776.01   -11538.399    -12776.01            0    4494.8767    23.354538     21.42963    43.611395   -9.3200623    3.9779949    5.3829497    21826.592    5458.2061    4391.0244    3635.3997    67.691439   -601.41937   -147.78555    23.354538    23.368624    44.122039    85.645886    84.827251    113.50493 
   62000    232.18038   -12794.695   -11599.464   -12794.695            0    5258.6461    23.263268    21.551902    43.351212   -9.0593416     3.480621    6.1552743    21734.896    5657.5064    4656.9783    5461.4537    387.25608    174.76036    -220.6962    23.263268     23.37854    43.924135    84.348442    85.455023    112.79945 
   62500    229.68697    -12798.97   -11616.574    -12798.97            0    5530.4685    23.354353    21.410897    43.373448   -9.2587809    3.9990821    5.5566587    21688.357    5731.6355    5286.4617    5573.3084   -215.98169     -398.177    324.31199    23.354353    23.327056    43.910422    85.411302    84.774624    113.38525 
   63000    235.70746   -12734.588   -11521.199   -12734.588            0    6123.6675     23.40674    21.396912    43.292464   -9.2219439    3.5760211    5.5224252    21682.249    6627.5789    5405.6007    6337.8229    6.7777649   -642.31544    1274.4842     23.40674    23.299616    43.789526    85.210695     85.31579    113.31576 
   63500     227.2908   -12811.821    -11641.76   -12811.821            0    6109.6992    23.344442    21.570599    43.009652   -9.1684253    4.0021047     6.141834    21657.664    6025.5614    5376.9107    6926.6254   -57.655444   -7.5153686   -851.97743    23.344442    23.438232    43.629911    84.625093    84.736948    113.02756 
   64000    234.66667   -12768.296   -11560.265   -12768.296            0    5828.7392    23.261909    21.516809    43.366782   -9.2040217    3.4725606    5.3857027     21706.03    6473.2803    5388.4252    5624.5121   -946.42741    199.41785    467.27603    23.261909    23.402715     43.83768     85.30789    85.456609    113.15928 
   64500     224.8102   -12808.973   -11651.682   -12808.973            0    5491.4746    23.393364    21.448195    43.390608   -9.2494086    3.9356718    5.7435521    21771.039    5314.5987    5138.1846    6021.6406   -447.31799   -264.51433    188.62907    23.393364    23.357581     43.94568    85.149931     84.86184    113.32784 
   65000    224.12573   -12810.456   -11656.689   -12810.456            0    4622.7434    23.392133    21.422047    43.449755   -8.9982755    3.4979441    5.8126653    21772.992     5042.495    4161.5341    4664.2009   -747.33466   -496.82265   -149.85936    23.392133    23.235169    43.976174    84.775455    85.437771    112.78471 
   65500    229.92606   -12798.453   -11614.826   -12798.453            0    4439.4528    23.287672    21.494537    43.562313   -9.4459243     3.852857    5.4740348    21805.452    5158.8479    4290.9733    3868.5373    65.771301   -377.26688    109.67127    23.287672    23.478514    44.073628    85.495563    84.984879    113.72342 
   66000    234.89329   -12764.472   -11555.275   -12764.472            0    5124.6255    23.262625    21.463826    43.609432   -8.9962824    3.6482628    5.8233888    21774.404    6715.6267    3776.1309    4882.1191   -1042.6173   -307.40249     99.03666    23.262625    23.272922    44.147528      84.8531    85.259786    112.74036 
   66500    231.98249   -12741.448   -11547.235   -12741.448            0     4945.776    23.294714    21.454388    43.617948   -9.2685814    3.9550037    5.8263323    21799.109    5783.6276    4915.8633    4137.8371   -220.47707    129.84533   -166.40169    23.294714    23.370866     44.18273     85.09206    84.864311    113.36499 
   67000    224.57519   -12788.339   -11632.257   -12788.339            0    5251.7405     23.32205    21.359255    43.603436   -9.1797203    3.6387748    5.3624642    21720.686      5353.63    5237.4153    5164.1762    698.87034   -859.56009    676.82149     23.32205    23.248334    44.082381    85.459221     85.26514    113.25693 
   67500    232.15413   -12805.687    -11610.59   -12805.687            0    5181.3153    23.329718    21.460139    43.408629   -9.1590657    3.9016083    5.9030562     21732.92    5976.1365     5286.129    4281.6803      -388.25   -657.03157   -1126.1357    23.329718    23.332939    43.981561    84.915678    84.910596    113.11251 
   68000    225.87759   -12781.126    -11618.34   -12781.126            0    6418.5747     23.18626     21.45725    43.507699   -9.1588618    3.7874263    5.9706488    21645.663    6069.4265    6556.7563    6629.5413    324.66075    15.262583    189.61478     23.18626    23.330202    44.078488    84.787565    85.070805    113.11484 
   68500     232.4509    -12769.44   -11572.815    -12769.44            0    5262.1609    23.284579    21.351425    43.702029   -9.1951869    3.6617327    5.4549851    21726.855    5113.2382     6071.646    4601.5985    221.27961   -59.714577   -571.54781    23.284579    23.247254    44.193127    85.377199    85.247165    113.29957 
   69000    236.74561   -12848.535   -11629.802   -12848.535            0    5306.8472    23.264534    21.425229    43.571747   -9.1734711    3.9532565    5.9594367    21718.249    5502.9609    5056.4658    5361.1148   -891.67489    180.12779   -806.44026    23.264534    23.306502    44.154731    84.903534    84.863322    113.17877 
   69500    227.83993   -12784.878    -11611.99   -12784.878            0    4604.9537    23.187517    21.484747    43.750136   -9.0810828    3.4069339    5.6092825    21795.353    4726.3612    4840.3429    4248.1571   -661.41493    258.95911    133.05537    23.187517    23.325103    44.239639    85.020072    85.583228     112.9126 
   70000    226.38887   -12792.885   -11627.467   -12792.885            0    4473.0552    23.389908    21.453047     43.44915   -9.2399745    3.8710289    5.5516731    21802.123    3742.1899    5093.7129    4583.2628    163.94519   -393.00424   -267.14626    23.389908    23.358304    43.973111    85.346454    84.949616    113.30188 
   70500    226.29809   -12791.111   -11626.161   -12791.111            0    4440.6033     23.42714    21.434208    43.395515   -9.0617026    3.8199111    6.0512871    21790.718    3807.2697    4314.0685    5200.4718   -1113.0967     613.6111   -90.554752     23.42714    23.271006    43.981593    84.669149    85.017441     112.9171 
   71000    231.36876    -12825.95   -11634.896    -12825.95            0    4671.3501    23.334967    21.492216    43.423315   -9.3659518    3.6330461    5.2669266    21777.667    4442.6874     4164.807     5406.556    298.23016    308.47339    568.60439    23.334967    23.444325    43.892184    85.587414    85.252079    113.54677 
   71500    229.37294   -12778.062   -11597.283   -12778.062            0    4818.6855    23.334241    21.507443    43.392012   -9.1380773    3.6596245    5.6256097    21776.709    4605.1191    4668.6645     5182.273   -1076.5898    619.63145   -468.25242    23.334241    23.368238    43.907938    85.105133    85.218984    113.01966 
   72000     236.4181   -12753.184   -11536.137   -12753.184            0    5092.4989    23.548817    21.393036    43.168207   -9.3437201    3.8958459    6.0650643    21747.308    4035.9113    5445.7671    5795.8182    279.53645    391.75838    -945.1095    23.548817     23.34453    43.765931    84.757789    84.893028      113.594 
   72500    223.55936   -12802.521   -11651.669   -12802.521            0      5207.61    23.353464    21.420448    43.382589   -9.1784958    3.3584388    5.2551059    21701.778    5132.6758    4532.3869    5957.7672   -104.58203    487.91167    356.04579    23.353464    23.304085    43.828578    85.409717    85.605306    113.19476 
   73000    230.98527   -12816.592   -11627.513   -12816.592            0    5358.0756    23.297742    21.573116    43.250822   -9.2045671    4.0831089    5.8421767    21738.075    5180.2155    5043.9388    5850.0725    441.74408   -44.224467   -37.528367    23.297742     23.45471    43.834192    85.064649     84.65521    113.10641 
   73500    234.00143   -12760.674   -11556.068   -12760.674            0    4716.8907     23.33002    21.492307    43.553604   -9.1266168    3.6201208    5.8954094    21838.472    5221.1751    4835.5104    4093.9866   -108.49934    313.88452   -333.21427     23.33002    23.349826    44.099632    84.780979    85.291314     113.0083 
   74000    234.13404   -12767.454   -11562.165   -12767.454            0    5344.9361    23.360234    21.374389     43.52934   -9.3158972    3.7906837    5.2130148    21734.667    4841.9082    5982.1463    5210.7538     44.44094    541.08752    758.22263    23.360234    23.316313    44.003957    85.745781    85.058179    113.54969 
   74500    237.26394   -12790.888   -11569.487   -12790.888            0    5189.7957     23.35213    21.446909    43.458948   -9.0651865    3.8062162    6.0825285    21765.588    6264.9509    4332.5331    4971.9032   -293.33532    125.82612   -454.85904     23.35213    23.284061    44.047299    84.631991    85.042773    112.91282 
   75000    236.10504   -12776.843   -11561.408   -12776.843            0    4836.0751    23.344146    21.478482    43.455779   -9.2740126    3.6833007    5.6006378    21788.589    4636.8324    4866.0141    5005.3788     668.4196    187.55398    426.55014    23.344146    23.395138    43.969746    85.196834     85.19476     113.3538 
   75500    230.61599   -12780.355   -11593.176   -12780.355            0    3713.5128    23.356429    21.526318     43.60806   -9.0983863    3.6714604    5.5654708     21925.17    3233.9715    4424.8965    3481.6704   -488.36518     473.4094    32.909703    23.356429    23.370131    44.114816    85.192724    85.226031      112.912 
   76000    227.12959    -12788.46   -11619.229    -12788.46            0    3532.8031     23.43522      21.4318    43.581363   -9.2296562    4.0131084    5.9616899    21889.129    4215.1793    2774.4797    3608.7504    131.12576   -875.58436    33.355883     23.43522    23.334708    44.169922     84.94981    84.787138    113.29924 
   76500    216.92097   -12790.432   -11673.754   -12790.432            0    5216.8456     23.37081    21.347318    43.584937   -9.2628286    3.5641943     5.365783    21744.705    4990.7006    6075.9866    4583.8497    459.97151     680.3065    423.27822     23.37081    23.270324    44.058392    85.438888    85.359869    113.45654 
   77000    221.02024   -12797.093   -11659.312   -12797.093            0    5073.4653    23.215067    21.526195    43.535563   -9.1837641    3.8641089    5.8760284    21756.116    5401.8488    5124.8877    4693.6595    689.88116   -207.98343   -551.50287    23.215067    23.403388    44.099935    84.941536    84.973203    113.10465 
   77500    230.66841   -12776.039   -11588.591   -12776.039            0    5381.4819    23.257984    21.572124    43.340595   -9.1280405    3.6824534    6.0514097    21745.022     5768.824    4880.0428    5495.5788    28.776035    45.700594    273.65457    23.257984     23.42387    43.915683    84.593214     85.18994    112.93519 
   78000    237.04835   -12767.389   -11547.098   -12767.389            0    5155.0974    23.413173    21.359571    43.525703   -9.3181858     3.768138    5.1740097        21767    5257.9635    5497.6284    4709.7003    648.05268   -522.67465    356.91727    23.413173    23.303645    43.993818    85.782212    85.086508     113.5694 
   78500    226.43903   -12783.335   -11617.659   -12783.335            0    4983.7795    23.444725    21.364621    43.397291   -9.1153134     3.797227    5.9079133    21737.168    4813.0643     5150.097    4988.1772   -2.5191615    215.34568   -160.86969    23.444725    23.227913    43.961884    84.853037    85.044877    113.10574 
   79000     229.1405   -12827.938   -11648.355   -12827.938            0    4831.7904    23.264629    21.503899    43.462549   -9.3021596    3.7217085    5.8836055    21743.453    5183.7551    4356.5687    4955.0474    605.02119    223.66798    63.283972    23.264629    23.429636      44.0166    84.887479    85.149714    113.39235 
   79500    223.97254   -12750.584   -11597.604   -12750.584            0    4195.7935    23.194452    21.562496     43.68967   -9.0778099    3.6755774    5.0378651    21850.527    5149.2151    3368.7869    4069.3787    168.67446     781.2755    699.68848    23.194452    23.395467    44.132496    85.819792    85.222584    112.83109 
   80000    226.56669    -12786.21   -11619.877    -12786.21            0    4431.3357     23.41558    21.397173    43.603595   -9.2604558    3.7105586    6.0454432    21846.588    5249.7561    3769.8487    4274.4022    28.093933    137.48345   -199.68336     23.41558    23.315125    44.176794    84.708191    85.181857    113.40242 
   80500    234.35453   -12818.548   -11612.124   -12818.548            0    4278.4639    23.323685    21.431328    43.663387   -9.1566511    3.7729703    5.4598344    21825.472     4081.181    4124.6777     4629.533    634.22637   -70.979082    587.29749    23.323685    23.305494    44.164878    85.404678    85.099294    113.13486 
   81000    228.50668   -12769.565   -11593.245   -12769.565            0    3923.4836    23.218871    21.606421    43.515295   -9.1989074    3.4894953    5.6671077    21830.609    4402.7102    3401.5587    3966.1818   -217.19084    687.83643    199.80494    23.218871    23.483128    44.021286    84.986176    85.453488    113.06182 
   81500     226.2776   -12788.961   -11624.115   -12788.961            0    4762.5263    23.404952    21.447933     43.40391   -9.2076712    3.9407281    5.9728976    21788.235    4698.6659    4733.1878    4855.7252   -336.05764   -447.68397   -58.172096    23.404952    23.340844     43.98982    84.869281    84.860398    113.23401 
   82000    231.45472     -12759.4   -11567.904     -12759.4            0    5663.5222    23.408416    21.344865    43.389313   -9.2318755    3.4643778    5.3028912    21679.448    5578.8721    6002.1212    5409.5732   -666.17781    1314.6828    748.51777    23.408416    23.255769     43.84923    85.432459    85.468534    113.38898 
   82500    238.68935   -12747.313   -11518.574   -12747.313            0    5798.7228    23.424325    21.499437     43.13153   -9.2050075    3.8756199     5.764982    21721.461    5422.2249    5221.1548    6752.7887   -382.27815    361.78294   -63.566243    23.424325    23.387132    43.687347    85.043915    84.910449    113.17824 
   83000    231.54883   -12823.175   -11631.194   -12823.175            0    5984.9577    23.316199    21.500444     43.17444   -9.1162651    3.7267906    5.7701202     21643.72    6042.5065    5597.5324    6314.8343   -395.07261   -53.958442     177.3771    23.316199    23.353274    43.717451    84.937777     85.10976    112.97712 
   83500    232.11386    -12779.26   -11584.371    -12779.26            0    6768.9993    23.305551     21.40716    43.331445   -9.2760825    3.5121782    5.5134071    21618.303    6069.7882    6463.2177    7773.9921    210.62704    393.85084    713.93841    23.305551      23.3305    43.821766    85.205833    85.402991     113.4279 
   84000    234.50934   -12735.503   -11528.282   -12735.503            0    5130.2797    23.389758    21.440835    43.403475   -9.1449815    4.0152036    5.8064003    21766.666    4760.2385    4876.8064    5753.7943   -687.19528   -749.00392    243.29124    23.389758    23.309657     43.97383    85.087574    84.761086     113.0993 
   84500    227.09857   -12788.578   -11619.506   -12788.578            0    5393.3373    23.245616    21.436265    43.518835   -9.2057892     3.675866    5.6416948      21685.4    6235.1606    4679.4783    5265.3731   -347.49099    173.81146    391.88339    23.245616    23.329381    44.036686    85.136682    85.211789    113.24107 
   85000    223.03459   -12766.882   -11618.731   -12766.882            0    4822.9113    23.302115    21.411486    43.608359   -9.2753715    3.7212575    5.4709716    21757.646    4690.2413    5339.3711    4439.1214    88.632843    307.75904    7.9034511    23.302115    23.334186    44.107463    85.395314    85.160318    113.42207 
   85500    227.15693   -12711.479   -11542.107   -12711.479            0    4738.5947    23.292106     21.50987    43.622963   -8.9400088    3.7392045    6.2554566    21855.549     4395.191    5126.7669    4693.8263   -843.08631     198.0146   -1156.3405    23.292106    23.293739    44.227539    84.366849    85.150156    112.56892 
   86000    235.61659   -12765.594   -11552.673   -12765.594            0    5336.9524     23.28502     21.42062    43.604225   -9.2729928    3.7886864    5.5348715    21748.895    6105.9243    5308.6807    4596.2522    144.39862   -891.25856    198.95987     23.28502    23.341622    44.117087    85.353003    85.073486     113.4078 
   86500    238.53752   -12833.386   -11605.428   -12833.386            0    5432.6641    23.265239    21.379552    43.684131   -9.1317794    3.6228385    5.5651853    21728.504    5495.8468    6749.7049    4052.4407    188.77529     528.2384   -111.85079    23.265239     23.24811    44.185966    85.203305    85.296999    113.12863 
   87000    227.71186   -12781.596   -11609.367   -12781.596            0    5792.8264    23.371535    21.320344    43.591348   -9.2673713    4.1166765    6.0203619    21721.096    5646.3689    6862.2854    4869.8249   -362.00874    188.14226   -475.08428    23.371535    23.247392    44.197255     84.96331    84.655537    113.49327 
   87500    227.18154   -12784.479    -11614.98   -12784.479            0     5786.723    23.215499     21.47508    43.482073   -9.0584625    3.6017652    5.6417376    21678.192    5122.1747     6948.074    5289.9203   -101.05668    396.03736     158.9492    23.215499    23.307398    43.994233    85.047025    85.303994    112.87064 
   88000    236.42836   -12773.057   -11555.957   -12773.057            0    6040.3332    23.246485    21.485942    43.370991   -9.4159377    3.6820701     5.557713    21662.623    6520.1909    5316.1143    6284.6943    365.07941   -131.07305   -31.722601    23.246485    23.458593    43.880391    85.277809    85.186564    113.66482 
   88500    226.75669    -12763.37   -11596.059    -12763.37            0    5733.6925    23.429323    21.382784    43.298985   -8.9542455    3.7571255    5.8239385    21692.105    5376.2098    6306.4067    5518.4608   -1405.8081   -190.92427   -660.49139    23.429323    23.181931    43.850158    84.870237    85.084814    112.72197 
   89000    224.98741   -12803.471   -11645.267   -12803.471            0    5421.2498    23.376979     21.38399    43.366244   -9.3243329    3.8024369    5.5871652    21678.486    5677.6034    4483.2513    6102.8948   -253.71117    -24.05918    657.94774    23.376979    23.328485    43.889703    85.292955    85.029881    113.55926 
   89500    224.42284   -12774.637    -11619.34   -12774.637            0    5686.2021    23.244171    21.546982    43.289249   -8.9643763    3.5751882    5.8138783    21681.062    6621.3139    4735.6006     5701.692   -645.27977   -651.42418   -154.61857    23.244171    23.337362    43.823991    84.770243    85.320575     112.5892 
   90000    223.91512   -12789.804    -11637.12   -12789.804            0    4659.5514    23.367275    21.494063    43.410028   -9.3226046    4.0511388    5.8975774     21803.02    4575.7241    4363.9423    5038.9877    297.63899    -502.5528     54.04897    23.367275    23.428737    43.995724     85.04694    84.716704    113.44779 
   90500    230.02887   -12769.053   -11584.897   -12769.053            0    4469.1433    23.332335    21.375837    43.642115   -9.1182158     3.223088    5.3409927    21766.426    4395.5359    4511.8044    4500.0897   -543.73131    1154.0053    201.99341    23.332335    23.239369    44.085697    85.253345    85.807388    113.10147 
   91000    232.97225   -12819.905   -11620.597   -12819.905            0    5233.1193     23.34031    21.433967    43.507477   -9.2497518    4.2763926    5.9267407    21765.722    5658.5916    5348.3989    4692.3676    78.045022   -604.68008   -195.55502     23.34031    23.344653    44.117052    85.127508    84.437421    113.34244 
   91500    223.31394   -12753.478   -11603.889   -12753.478            0    4945.6516    23.278567    21.496762     43.49154   -9.1815605    3.3700482    5.8324803    21763.768    5839.0359    4451.2839    4546.6349   -37.221151    403.86807    34.559491    23.278567    23.375454    44.010103    84.732981     85.60831    113.12799 
   92000     229.9681   -12800.145   -11616.301   -12800.145            0    4650.5783    23.322766    21.451158    43.526956   -9.2499689    4.0692076    5.3578922     21776.55    5323.0935    4647.3642    3981.2773   -226.89938   -387.62601   -64.235965    23.322766    23.360524    44.043858     85.69172    84.698889    113.32622 
   92500     231.8184   -12812.309   -11618.941   -12812.309            0    5133.3679    23.375374    21.364193    43.534589   -9.1720204    3.5903048    6.0030539        21741    5205.3597     5642.231    4552.5131    201.59653    430.81527   -125.93131    23.375374    23.249832     44.09294     84.66486    85.329472    113.23469 
   93000    228.79358   -12787.711   -11609.914   -12787.711            0    4805.2079    23.312283    21.467756    43.447774   -9.1625316    3.7361082    5.3807207    21743.977    4124.6539    4854.1536     5436.816    334.01213    332.64355    786.49977    23.312283    23.341305    43.938818     85.45444    85.122263      113.113 
   93500    225.66318    -12791.84   -11630.158    -12791.84            0    4680.1144     23.42126     21.52337    43.315202   -9.3213388    3.8416582    6.0011224    21835.386     4747.057    4569.3161    4723.9702    256.06601   -320.16045   -452.93353     23.42126    23.455123    43.897364    84.797875    84.979363    113.41647 
   94000    228.34842   -12788.486   -11612.981   -12788.486            0    4272.1079     23.40821    21.446055    43.464021    -9.092506     3.592787    5.7940528    21819.536    3707.4724    5003.1184    4105.7329    225.09079    573.14171   -346.47229     23.40821    23.293925    43.995458    84.872447    85.315857    112.97554 
   94500    231.18247   -12792.632   -11602.537   -12792.632            0    4239.3374    23.332932    21.527504    43.372632   -9.3825415    3.9463047    5.3853706    21786.064    4282.9803     4382.229    4052.8028   -438.10838   -53.024841    528.42076    23.332932    23.483303     43.88349    85.608587      84.8406    113.54948 
   95000    229.39938   -12761.839   -11580.924   -12761.839            0    4840.6477    23.397518    21.491167    43.344831   -9.0143588     3.455712    6.1045518    21795.513    4793.2171    5085.2607    4643.4653   -808.99399     639.6768   -1067.0559    23.397518    23.305126     43.90879    84.389516    85.486036    112.75536 
   95500    229.06537   -12767.775   -11588.579   -12767.775            0     4592.875    23.368907    21.449273    43.483823   -9.3127414    3.9996259    5.4728164    21796.096    3927.4101    5041.5224    4809.6924    153.45412     15.48981    327.15294    23.368907    23.383722    44.008995    85.533583    84.785649    113.46929 
   96000    231.68039   -12805.084   -11612.426   -12805.084            0    3801.6474    23.326879    21.455034    43.627939   -9.1050827     3.498969    5.6410695    21834.867     4387.309    3533.4473     3484.186    278.44675   -205.69005    207.52542    23.326879    23.307102    44.130052    85.026424    85.452378    112.99539 
   96500    232.61178   -12806.689   -11609.236   -12806.689            0    4144.6561    23.380721    21.494954    43.472824   -9.4091703    4.2746497    5.7355881    21848.029    4550.6351    3906.5419    3976.7914    578.40664   -1033.7103    133.22781    23.380721    23.464133    44.057418    85.391208    84.432145    113.64085 
   97000    233.94351   -12795.813   -11591.504   -12795.813            0    4591.0489    23.345665    21.469484      43.5384   -9.0242322    3.4625323    5.5747774     21822.29    5076.4691    3724.1301    4972.5474   -854.88875    381.71575   -26.998836    23.345665    23.288957    44.030212    85.052169    85.489608    112.79839 
   97500    234.28005   -12798.497   -11592.456   -12798.497            0    4614.2047    23.422956    21.484439    43.307139    -9.611933    4.0020265    5.9711007    21793.412    4140.1381    4589.0453    5113.4306    1032.7596   -579.67041   -44.085197    23.422956    23.536576    43.899642    85.013075    84.769478    114.10329 
   98000    222.54991   -12776.686   -11631.031   -12776.686            0    5432.4152    23.306453    21.441215      43.4879    -8.928946    3.4950622    5.4957345    21731.715     6123.885    5719.7745    4453.5861   -1097.4909    672.40296    158.95996    23.306453    23.226101    43.972901    85.134341    85.441198    112.60872 
   98500    230.28425   -12830.388   -11644.917   -12830.388            0    5153.7283    23.322134    21.414119     43.46559   -9.2636096    3.9320624    5.6129576    21707.714    5322.9687     5370.374    4767.8421     21.09831   -797.39944   -797.73182    23.322134     23.33193    44.002544    85.319704    84.873217      113.393 
   99000    233.95044   -12783.023   -11578.679   -12783.023            0    4568.4445    23.338007    21.464552    43.543655   -9.1648253    3.8108915    5.9093324    21812.752     5080.468    3874.3301    4750.5355    342.18454    97.236703   -562.90293    23.338007    23.339259    44.107743    84.877453    85.043488    113.12127 
   99500    235.55506    -12744.85   -11532.246    -12744.85            0    5204.2413    23.333443    21.472568    43.463195    -9.073679    3.5682052    5.4436175    21776.319    5565.5756    4332.7243    5714.4241    -506.0817   -665.58508    56.969452    23.333443    23.311003     43.94786    85.268111    85.342927     112.9075 
  100000    230.72282   -12813.691   -11625.962   -12813.691            0    4752.9747    23.408687    21.494686    43.227986   -9.4474886    3.8449107    5.9756304    21750.696    4892.4659    4140.9814    5225.4766   -156.27798    154.79648    -457.1404    23.408687    23.479279    43.808107    84.861724    84.964837    113.72677 
  100500    227.86298   -12808.125   -11635.118   -12808.125            0    5742.8685    23.349712    21.404936    43.437549   -9.0693469     3.637986    5.6298759    21710.047    6176.5438    5015.5337    6036.5281   -786.44632    199.22954   -639.92957    23.349712    23.247029    43.951691    85.086573     85.25206    112.96254 
  101000    220.53039   -12746.956   -11611.697   -12746.956            0    6406.9514    23.314962    21.415464    43.369785   -9.4729935     4.163102    5.5535253    21654.565    6179.1348    7218.2136    5823.5058    90.607851   -220.79366    667.92612    23.314962    23.417081     43.92165    85.567176     84.56107     113.8619 
  101500    225.70803   -12789.861   -11627.947   -12789.861            0    5490.9375    23.223674    21.504128    43.533406   -8.9101946    3.3481395    5.8626463    21740.794    5863.0997    5434.3333    5175.3796   -1091.2812    477.08995   -1010.0737    23.223674    23.277007    44.053809    84.614816    85.641253    112.50658 
  102000    233.81276   -12741.865   -11538.229   -12741.865            0     5466.215    23.328641    21.415786    43.535305   -9.3821249    4.0242382    5.6257472     21750.29    5263.1134    6482.2077     4653.324    -475.8175   -410.65965     -218.337    23.328641    23.380765     44.08136    85.396297    84.762109    113.65793 
  102500    224.65584   -12794.363   -11637.867   -12794.363            0    4931.2675      23.3122    21.359875    43.588342   -9.0662851    3.4403116    5.4682348    21704.626    5456.3527    4263.7846    5073.6651   -706.50457   -106.37657    519.46113      23.3122    23.204348    44.064508    85.197168    85.522107    112.99899 
  103000    225.04241   -12798.118   -11639.632   -12798.118            0    4291.7273    23.375101    21.557963    43.304777   -9.2252322    4.1555617    5.9554533    21822.124    5044.9315    4011.4936    3818.7569   -669.28589   -296.75955   -801.22311    23.375101    23.448895     43.90945    84.982492    84.569438    113.16738 
  103500    237.79695   -12814.249   -11590.104   -12814.249            0    4673.3002    23.305801    21.465737     43.51708   -9.2007589       3.4179    5.5217186    21770.559    4380.0741    5271.6653    4368.1612    843.61971    588.31027    371.80103    23.305801    23.354482    43.998951    85.138704    85.544695     113.2012 
  104000     230.8235   -12792.208   -11603.961   -12792.208            0    4231.7563     23.33118    21.505547    43.522782   -9.2480958    4.0265538    5.4543237    21837.546    4643.7493    3601.0743    4450.4453   -285.82052    197.43645    871.48083     23.33118    23.409738    44.047648    85.546949    84.755065     113.2693 
  104500     225.9771   -12806.294   -11642.996   -12806.294            0    5375.4389    23.391977    21.440429    43.395699   -9.1356732    3.8838197    5.9410031     21764.42    5195.4093    4868.0251    6062.8824   -367.41618   -84.747402     267.3918    23.391977    23.305633    43.972335    84.855251    84.932795    113.07864 
  105000    230.22354   -12759.065   -11573.907   -12759.065            0    4834.2168     23.36048    21.398089    43.603111    -9.304145    3.5181684    5.3464628    21795.872    4918.0212    5659.0838    3925.5452    941.90117   -209.30116    314.45011     23.36048    23.333353    44.070324    85.444644    85.421161    113.49998 
  105500     236.5433   -12740.479   -11522.787   -12740.479            0    5073.8692    23.267991    21.574447    43.476844   -9.1801902    4.0701239    5.7997197    21825.116    6339.6533    4568.5574    4313.3969     615.3434   -1285.0511    60.738934    23.267991    23.446378     44.05041    85.125572    84.698483    113.05034 
  106000    231.19992   -12796.897   -11606.712   -12796.897            0    5489.7011    23.337631    21.437051    43.472051   -9.1227556    3.6688206    5.9162079    21748.632    6131.6517    5145.1823    5192.2693    308.05624   -205.13281    227.80927    23.337631    23.297464    44.025913    84.777834    85.219815    113.05267 
  106500    234.42714   -12789.192   -11582.394   -12789.192            0     5367.977    23.371128    21.344394    43.578559   -9.3537134     3.852698    5.3299823    21738.841    4494.6842    6491.0862    5118.1607    588.12941   -226.77404    486.09807    23.371128    23.303972    44.072018    85.659659    84.984903    113.66438 
  107000    236.73392   -12807.039   -11588.366   -12807.039            0    5025.8709    23.364202    21.407465     43.46555   -9.0313543    3.7216595    5.7629052    21740.092    5266.0545    4898.4813    4913.0768   -782.94611   -123.39118   -372.66948    23.364202    23.234563     44.00359     84.96348    85.148341    112.87385 
  107500    235.84512    -12766.84   -11552.743    -12766.84            0    5121.2391    23.271161     21.56057    43.319113   -9.3475782    3.8647605     6.014512     21734.91    6301.4913    4957.3612    4104.8647    718.63683   -1043.2185   -1548.4177    23.271161    23.499689    43.905083    84.797799    84.949983    113.43913 
  108000    228.46227   -12762.424   -11586.333   -12762.424            0    5367.9468    23.277484     21.46157    43.531037   -9.1066222    3.6315216    5.3288078    21746.859    5851.0493    5107.9402    5144.8508   -673.60804    158.26682    512.24852    23.277484     23.31372    44.006083    85.455243    85.266387    112.99259 
  108500    239.98246    -12826.18   -11590.784    -12826.18            0    4410.4267    23.451836    21.436313    43.349044   -9.2685085    4.0176172    6.2252265     21792.47    4280.2132     4435.084    4515.9829      311.133   -1063.6687   -549.26428    23.451836    23.354245    43.977657    84.625034    84.758386    113.38241 
  109000    223.61191   -12802.681   -11651.558   -12802.681            0    5038.7938    23.328412    21.397367    43.558435    -9.142871     3.592295    5.5148279    21742.915    5684.8765    4574.8089    4856.6961   -534.89737    346.59639    353.96924    23.328412     23.26885    44.052867    85.234544    85.322617    113.13651 
  109500    225.11138    -12796.32   -11637.479    -12796.32            0    6148.9125    23.250478    21.465423    43.427933   -9.1604415    3.6773205    5.4939994    21674.072    6114.0941      6521.58    5811.0636   -827.39813    294.83873    602.19086    23.250478    23.338339    43.928261      85.2865    85.198039    113.11053 
  110000    236.80128   -12802.429   -11583.409   -12802.429            0    6034.9182    23.247387    21.528667    43.398355   -9.2600442    3.7458668    6.2519601    21720.236    6529.1231    5606.3339    5969.2975    382.84398    354.08692   -868.07651    23.247387    23.435697    44.006087    84.440697    85.116985    113.27381 
  110500    225.64533   -12787.409   -11625.818   -12787.409            0    6049.1141     23.31984    21.344913    43.519615   -9.1081223    3.7807841    5.3440612    21662.321    5779.6826    6015.2745    6352.3852    -349.6838   -321.88167    1079.4137     23.31984    23.206964    44.009205     85.52809    85.071706    113.10851 
  111000    228.80072   -12780.167   -11602.333   -12780.167            0    5699.5143    23.397266    21.346069    43.423292   -9.2875478    3.8287045    5.6434752    21687.314    5795.0269    5180.6317    6122.8843   -93.157752    423.28427    292.89931    23.397266    23.279029    43.955546    85.240231    85.002975    113.51357 
  111500    233.00105    -12766.64   -11567.183    -12766.64            0    6240.1573    23.162578    21.564503    43.291384   -8.8959863    3.7726227    5.6870224    21623.591    6491.2777    5354.3419    6874.8524   -34.688587   -191.19244   -282.11613    23.162578    23.327374    43.826007    85.001501    85.061763    112.41758 
[...]
  474500    235.59965   -12784.443   -11571.609   -12784.443            0    4929.8247    23.284895    21.483912    43.577441   -9.2106126    3.5559418    5.9759117    21799.643    5860.5925    4114.3168    4814.5646   -264.21872    6.1815818    184.37437    23.284895    23.375069    44.128785     84.68036    85.378037    113.20585 
  475000    235.21543   -12821.105   -11610.249   -12821.105            0    5449.5818    23.250178    21.541727    43.362795   -9.1270928    4.0605098    5.7442704    21718.212     6566.699    4745.4444    5036.6021    383.15509   -969.68352   -365.61237    23.250178    23.395509    43.929675    85.161937    84.696463    112.96206 
  475500    230.80936   -12817.223   -11629.049   -12817.223            0    4607.3926    23.394149    21.434172    43.342047    -9.287142    3.3469876    5.4597813    21733.185    4439.5638    4757.1893    4625.4247   -340.74197    93.091607   -327.05962    23.394149    23.359682    43.812608    85.183035     85.61872    113.42644 
  476000    229.45113   -12709.719   -11528.537   -12709.719            0     5265.393    23.446181    21.410655    43.375567   -9.2527412    3.9199376    5.7479694    21774.451    5204.9622    5304.5874    5286.6295    438.43778     328.4268     609.3191    23.446181    23.324437    43.929999    85.140642    84.880605    113.37187 
  476500    224.70414   -12723.515    -11566.77   -12723.515            0    5690.9665    23.321364    21.482224    43.414588   -9.1959946    3.7835474    5.5920996    21750.481    5614.7639    5389.3555    6068.7802   -132.80901    80.653874    220.61034    23.321364    23.367761    43.936469    85.232174     85.05991    113.17454 
  477000    236.96467   -12776.205   -11556.344   -12776.205            0    5476.1472    23.145576    21.587428    43.513647    -9.206102    3.2623973    5.9817889    21741.744    6915.7064    4162.8386    5349.8967    353.67956    757.88923   -190.72602    23.145576    23.468476     44.04387    84.498484    85.752123    113.09615 
  477500    235.85456    -12736.48   -11522.334    -12736.48            0     5192.651    23.343249    21.449257    43.552708   -9.1634371    4.1056156    5.5732808    21806.639    5628.0481     5525.884     4424.021   -385.15489   -692.61152    267.39001    23.343249    23.324648    44.099387    85.431944    84.658076    113.13288 
  478000    233.48102   -12786.948    -11585.02   -12786.948            0    5414.7668    23.440318     21.32071    43.456644   -9.2050166    3.4281319    5.7753695    21718.076     4938.546    6010.1233    5295.6309    135.94783    842.14203   -24.303766    23.440318    23.222942    43.972569    84.854789    85.528644    113.35182 
  478500    228.40125   -12811.741   -11635.964   -12811.741            0    4675.9601    23.367364    21.443475    43.395736   -9.3194099    4.0216693    5.6369025    21744.626    4289.6245    4851.6906    4886.5653    424.77287   -196.17203     455.9753    23.367364    23.381061     43.94472    85.344453    84.749141    113.48994 
  479000    235.84106   -12832.761   -11618.685   -12832.761            0    4444.4556    23.242523    21.535809     43.46948   -9.0151207    3.6161578    5.6228578    21758.497    5178.7859    3856.9274    4297.6534    326.61387    -340.2026   -3.9294265    23.242523    23.346594     43.98055    85.055926    85.283717    112.71471 
  479500    226.47456   -12800.341   -11634.482   -12800.341            0    4313.1112    23.411662    21.435787    43.544517   -9.5322461    3.8315375    5.9407125    21852.702     3445.184    4877.9903    4616.1593    1435.8418    276.33784   -351.16553    23.411662    23.459682    44.114598    84.965435    85.017344    113.97416 
  480000    230.25881   -12769.964   -11584.624   -12769.964            0    4736.2226    23.417293    21.382601    43.553697   -8.9971486    3.6626681    5.4919316    21808.321    4659.1474    4850.3362    4699.1841   -542.67677    235.96583    536.47086    23.417293    23.198368    44.051117    85.258138    85.230587    112.81988 
  480500    234.07477   -12766.583   -11561.599   -12766.583            0    5127.2109     23.35845    21.460258    43.427003   -9.3212417    3.9340515    5.8780903    21769.016    4490.2646     5378.786    5512.5821    537.32401   -60.069478   -216.94753     23.35845    23.397184    43.999242    85.013862    84.870231    113.47767 
  481000    219.31535   -12825.393   -11696.388   -12825.393            0    4461.6408    23.251564    21.521479    43.480821   -9.0661736    3.4152944    5.8463368    21758.152    4841.5732    4117.5785    4425.7706     52.96871   -331.63647    395.24401    23.251564    23.353149    44.004837     84.70373    85.548695    112.84383 
  481500    228.58532   -12739.474   -11562.749   -12739.474            0    4412.2777    23.380521    21.471316    43.468933   -9.2531791    4.0787655    5.2756952    21821.863    3833.4047    4310.6342     5092.794    34.757665    124.97982    472.41818    23.380521    23.380307    43.977465    85.787117    84.678356    113.31389 
  482000    228.43021    -12853.25   -11677.323    -12853.25            0    4384.8858    23.411843    21.422867    43.475808   -9.1621132    3.4335033    6.0949186     21805.24     4359.198    5247.1948    3548.2645   -100.75129    1187.8882   -950.34682    23.411843    23.299862    44.035019    84.456587    85.527988    113.15538 
  482500    240.84251   -12798.934   -11559.111   -12798.934            0    4729.6854    23.368395    21.468884    43.464612   -9.2330748    4.0695924    5.4682047    21805.907     5261.811     4272.686    4654.5592   -258.49205   -1136.8604    590.32471    23.368395    23.370123    43.995856    85.547474    84.692585    113.27098 
  483000    228.23475   -12806.776   -11631.856   -12806.776            0    5567.3283    23.306475    21.448367    43.367932   -9.1912179    3.3595255    5.5191651    21679.015    5105.4435    5964.5759    5631.9656    587.44002     964.2568     -359.078    23.306475    23.334758    43.846609     85.09412    85.605693    113.19647 
  483500    234.11353   -12775.434    -11570.25   -12775.434            0    5940.0665    23.339578    21.431136    43.339315   -9.1921783     3.810756    5.8701579    21678.051    6114.6133    5521.0012    6184.5851   -448.92648   -387.82035    -4.065364    23.339578    23.319299    43.900761    84.912879    85.020237    113.21532 
  484000    226.75844   -12735.625   -11568.304   -12735.625            0     6931.339    23.316921    21.404572    43.419135   -9.1742487    3.9267246    5.5179607        21670     6473.576    7496.8714    6823.5697   -24.549441     -635.962   -150.68804    23.316921     23.28782     43.94415    85.399315    84.873374    113.20054 
  484500    231.81054   -12787.164   -11593.836   -12787.164            0    5529.7447    23.361064    21.360029    43.577416   -9.2719709    3.3163743    5.6451332    21744.826    5123.9151    6309.6249     5155.694   -3.5771322    186.75198   -939.32794    23.361064    23.285624    44.066508    84.977637    85.683931    113.46472 
  485000    238.24312   -12794.337   -11567.895   -12794.337            0    4929.7322    23.317044    21.585203    43.355823   -9.1006369    4.1254116    5.8963385    21821.121    5444.3011    4225.1048    5119.7906   -1168.4444    92.456403    105.66695    23.317044    23.425255    43.948984    84.999914    84.613819      112.861 
  485500    224.37178   -12753.614    -11598.58   -12753.614            0    4938.0658    23.339305    21.449373    43.497842   -9.1986555    3.5762922    5.6267244    21775.604    5334.0468    4189.5572    5290.5935   -224.76249    538.87278    807.39525    23.339305    23.338613    44.005819    85.096278     85.33851    113.21228 
  486000    215.87611   -12807.279   -11695.979   -12807.279            0    5286.5991    23.355034     21.38566    43.533729   -9.3213892    4.1354948    5.8170919    21743.479    6195.0033    5511.7492    4153.0447   -1013.9454   -889.38248   -188.44744    23.355034    23.328839    44.114923    85.214708    84.620985    113.55099 
  486500    228.16247   -12762.802   -11588.254   -12762.802            0    4965.2205    23.289894    21.440939    43.607233   -9.0101627    3.6614635    5.7671609    21775.586    5731.5221    4785.7176    4378.4218   -1374.8843    -584.8833   -300.81911    23.289894    23.257191    44.139067    84.933146    85.241681    112.79369 
  487000    226.69561   -12830.392   -11663.395   -12830.392            0     4720.621     23.33105    21.415753    43.565451   -9.4526355     3.845964    5.5320349    21767.564     4503.081    4350.3274    5308.4546    811.70269   -331.96262    385.37558     23.33105    23.409118    44.083368    85.435832    84.994983    113.81604 
  487500     227.8453   -12775.832   -11602.916   -12775.832            0    4505.6094    23.274744    21.527601    43.536983   -8.8276412     3.676283    5.8868572     21814.18      4225.71    4713.0207    4578.0974   -338.48692   -172.92014   -610.09757    23.274744    23.267249    44.086722    84.726622    85.216692    112.29665 
  488000    236.96871   -12810.655   -11590.773   -12810.655            0    4408.9387    23.414569    21.431559    43.528276   -9.4104078    4.0654178    5.8297465    21842.956    4088.7763    3850.4052    5287.6346    697.16099    8.3146037    60.931045    23.414569    23.406569    44.104698    85.183327    84.711167    113.70585 
  488500    231.49797   -12770.144   -11578.426   -12770.144            0    4058.1538    23.340006    21.482455    43.601577   -9.0030271    3.5049784    5.4347133    21861.858    4447.9173    4798.0922    2928.4518   -459.32025   -566.12432    58.769435    23.340006    23.292711    44.078549    85.240164    85.439217    112.73795 
  489000    236.31795   -12832.157   -11615.626   -12832.157            0    4692.9642      23.3572    21.579715    43.229377   -9.4541736    3.9796373    5.8603335     21789.41    5615.4397    3251.4433    5212.0097   -296.51376    -763.0978   -111.38019      23.3572    23.559828    43.805936    85.061846    84.787664    113.65845 
  489500    226.90446   -12778.846   -11610.774   -12778.846            0    5024.6777    23.352575    21.442471    43.443739   -9.1224111    3.5020885    5.7912552    21753.884    4786.9934    5018.7388    5268.3011   -856.63739    848.75844    212.55371    23.352575    23.302316    43.967735    84.835167    85.431476    113.04668 
  490000    233.84803   -12784.471   -11580.654   -12784.471            0     5504.003    23.394568    21.389988    43.416112   -9.2750676     3.945544    5.4514207    21725.836    4946.7088     5992.555    5572.7453    439.52244   -671.95153    -230.9365    23.394568     23.31434    43.934543    85.519941    84.847608    113.44239 
  490500    232.90859    -12756.82    -11557.84    -12756.82            0    5453.3337    23.387846    21.415048     43.45906   -9.1455694    3.7771597     5.893315    21766.549    5216.8973     6000.753    5142.3508   -6.7225605   -592.85695    81.655537    23.387846     23.28617    44.019177    84.869622     85.07756    113.12552 
  491000    240.76956   -12805.906   -11566.458   -12805.906            0    5027.5556    23.264195     21.49096    43.425985    -9.170745    3.8983884    5.6594716    21711.685    5027.4011    5156.2708     4898.995    471.11697     757.6102    185.44159    23.264195    23.365871    43.966388    85.204868    84.913048    113.10919 
  491500    227.82725   -12785.172   -11612.349   -12785.172            0    5578.8386     23.27079    21.453443    43.475572   -9.2356818    3.4750668    5.6643143    21704.682     5701.159    5200.4632    5834.8936   -247.05292    126.30231    550.74141     23.27079     23.35697    43.980517     85.00596     85.46812    113.29182 
  492000    233.97756    -12806.41   -11601.927    -12806.41            0      5299.25    23.371103    21.383268    43.476677   -9.0958141    4.0378562    5.6927482    21727.493    5806.2798    5193.4621    4898.0081   -1090.5032    102.43564    127.95015    23.371103    23.237426    44.033318     85.23478    84.738584    113.04348 
  492500    220.34638   -12799.329   -11665.016   -12799.329            0    4929.6729    23.349906    21.381485    43.561823   -9.2779275    3.4434256    5.7768992    21748.486    4992.7899    4538.1087      5258.12    227.92851    261.84158   -650.52859    23.349906    23.307677     44.07791    84.886285    85.519411    113.45715 
  493000    228.40322   -12814.164   -11638.377   -12814.164            0    4862.2032    23.278761    21.512129    43.429289   -9.1799556     3.719485    5.4747843    21748.333    5795.7426    4007.5254    4783.3415   -140.12656   -75.509391   -332.50703    23.278761    23.388956    43.930752    85.331433    85.143124    113.10959 
  493500    237.86067   -12754.791   -11530.318   -12754.791            0    4809.4444    23.387843    21.532912    43.285005    -9.188749    3.9265723    6.0192124    21798.691      4182.81    4558.3608    5687.1624    407.51002     123.3542   -341.03208    23.387843    23.411523    43.877563    84.775949    84.865773    113.10942 
  494000    238.34646   -12767.555   -11540.581   -12767.555            0    4540.1391    23.513874    21.317588    43.448191   -9.2855147     3.278559    5.2630467    21778.801    3680.1431    5756.7915    4183.4828    299.91056    752.49808   -131.82405    23.513874    23.252104    43.888426    85.405098    85.715892    113.53698 
  494500     221.9481   -12735.221   -11592.663   -12735.221            0    4519.6448    23.367305    21.579417    43.291208   -9.1993096    3.9541163    5.7906655    21829.714    5093.2175     3806.707    4659.0099    -326.9473   -806.27768   -412.24225    23.367305    23.458443    43.855394    85.060374    84.827039    113.08856 
  495000    237.55731   -12790.778   -11567.867   -12790.778            0    4611.6487    23.321742    21.515966    43.462358   -9.1859984    3.5656056    5.6123275    21808.968    3455.3164    4882.9379    5496.6917    66.611486    329.31164    220.85156    23.321742    23.394857    43.968038    85.092233    85.348468    113.11951 
  495500    232.39757   -12793.496   -11597.146   -12793.496            0    4574.8217    23.485013    21.337696    43.503079   -9.4241551    4.0477873    5.5735877    21800.092    4128.3061    5309.2414    4286.9177    137.02487   -1308.3396    274.58056    23.485013    23.326207     44.04506    85.490415    84.727017    113.82946 
  496000     232.6542   -12807.247   -11609.576   -12807.247            0    5049.1196    23.333453    21.391583    43.533921   -9.0675665    3.6240509    5.7280607      21729.5    5443.0493    4653.5957    5050.7138    -279.8808    61.044285    482.51953    23.333453     23.23404    44.058447     84.97452    85.281774    112.97135 
  496500    223.47328   -12772.302   -11621.893   -12772.302            0    5354.1466    23.231929    21.452494    43.541342   -9.3707642    3.7954637    5.5055946    21700.256    5560.0242    5006.7044    5495.7112    527.26128   -16.701991     135.0473    23.231929    23.409842    44.051851    85.409061    85.057325    113.59641 
  497000    224.73514   -12781.151   -11624.246   -12781.151            0    4974.8949    23.269454    21.502055    43.442081   -8.9124285    3.6715319    5.7755677    21735.858    5362.0388    4783.1986    4779.4473   -1134.0719    191.38105    41.024072    23.269454    23.275948    43.977855      84.8736    85.211035    112.51361 
  497500    217.50782   -12786.976   -11667.277   -12786.976            0    4761.9974    23.453288     21.37671    43.416659   -9.3826867    3.8976442    5.7430534    21767.122    4451.5373    5760.0036    4074.4512    223.85936   -635.12406   -572.44517    23.453288    23.345204     43.96795     85.18281    84.914203    113.69768 
  498000    228.38991   -12786.554   -11610.835   -12786.554            0    4497.4966    23.394592     21.46325    43.381143   -9.2264779    3.4944711    5.4326709    21782.712    4060.1317    4776.0454    4656.3128    500.11844   -423.77878    542.23515    23.394592    23.362342    43.859421    85.277439    85.430152    113.26158 
  498500     222.0754   -12776.521   -11633.308   -12776.521            0    4202.5077    23.380221     21.63095    43.071502   -9.2174937    4.1552648    5.8489723    21782.826    4628.0185    2534.0871    5445.4176    81.772216   -984.99513    715.54557    23.380221    23.512979    43.664986    85.070836    84.539333    113.08008 
  499000    232.04312   -12730.331   -11535.806   -12730.331            0    5252.9787    23.367105    21.432753    43.409892   -9.2871371    3.3736633    5.5753907    21740.603    6105.4982    4271.2151    5382.2229    521.96359    237.33339    744.93619    23.367105    23.358378    43.896302    85.067338    85.592169    113.42782 
  499500    226.46149   -12775.802    -11610.01   -12775.802            0    5788.2749    23.334282    21.418584    43.356073   -9.0535816    4.2377743    5.6615687    21668.814    6282.7507    5769.2155    5312.8585    74.067216   -1615.7102    503.43321    23.334282    23.253453    43.929047    85.345281    84.464147    112.91366 
  500000    235.25685   -12767.559    -11556.49   -12767.559            0    4967.0168    23.299261    21.425173    43.689862   -9.2926525      3.46685    5.9639392    21809.573    5047.1757    5662.7495    4191.1251    1157.6954     212.7511   -496.15733    23.299261    23.353617    44.231117    84.691789    85.504526    113.44763 
Loop time of 1581.01 on 128 procs for 500000 steps with 2592 atoms

Performance: 54.649 ns/day, 0.439 hours/ns, 316.254 timesteps/s
99.0% CPU use with 128 MPI tasks x 1 OpenMP threads

MPI task timing breakdown:
Section |  min time  |  avg time  |  max time  |%varavg| %total
---------------------------------------------------------------
Pair    | 74.118     | 92.608     | 112.63     | 111.9 |  5.86
Bond    | 0.070747   | 0.080235   | 0.11533    |   2.1 |  0.01
Kspace  | 822.77     | 846.64     | 867.78     |  38.8 | 53.55
Neigh   | 14.582     | 14.942     | 15.366     |   4.2 |  0.95
Comm    | 234.46     | 248.15     | 268.8      |  63.4 | 15.70
Output  | 6.2019     | 6.2049     | 6.2714     |   0.2 |  0.39
Modify  | 317.27     | 339.41     | 351.53     |  47.6 | 21.47
Other   |            | 32.96      |            |       |  2.08

Nlocal:        20.2500 ave          26 max          14 min
Histogram: 4 10 15 10 11 27 20 20 4 7
Nghost:        2546.16 ave        2593 max        2496 min
Histogram: 3 6 13 12 20 31 21 12 6 4
Neighs:        6402.73 ave        8292 max        4444 min
Histogram: 4 10 15 15 15 17 21 21 4 6

Total # of neighbors = 819549
Ave neighs/atom = 316.18403
Ave special neighs/atom = 2.0000000
Neighbor list builds = 19165
Dangerous builds = 1

unfix		3
unfix		2
unfix		1

write_data	data.final.${pid}
write_data	data.final.0
System init for write_data ...
PPPM initialization ...
  extracting TIP4P info from pair style
  using 12-bit tables for long-range coulomb (../kspace.cpp:340)
  G vector (1/distance) = 0.36767096
  grid = 30 40 60
  stencil order = 5
  estimated absolute RMS force accuracy = 0.0044241305
  estimated relative force accuracy = 1.3323138e-05
  using double precision FFTW3
  3d grid and FFT values/proc = 4864 640
WARNING: Not all mixed pair coeffs generated from mixing. Use write_data with 'pair ij' option to store all pair coeffs. (../write_data.cpp:312)

write_restart   restart.lmp.${pid}
write_restart   restart.lmp.0
System init for write_restart ...
PPPM initialization ...
  extracting TIP4P info from pair style
  using 12-bit tables for long-range coulomb (../kspace.cpp:340)
  G vector (1/distance) = 0.36767096
  grid = 30 40 60
  stencil order = 5
  estimated absolute RMS force accuracy = 0.0044241305
  estimated relative force accuracy = 1.3323138e-05
  using double precision FFTW3
  3d grid and FFT values/proc = 4864 640
Total wall time: 0:26:21
