LAMMPS data file via write_data, version 30 Jul 2021, timestep = 4750000

1920 atoms
2 atom types
1280 bonds
1 bond types
640 angles
1 angle types

-0.01847403317617413 24.748475033175303 xlo xhi
-0.1742427695500357 24.904243769546845 ylo yhi
-0.0690331911674047 22.879033191167412 zlo zhi

Masses

1 1.008
2 15.999

Pair Coeffs # lj/cut/tip4p/long/omp

1 0 0
2 0.21084 3.1668

Bond Coeffs # harmonic/omp

1 450 0.9572

Angle Coeffs # harmonic/omp

1 55 104.52

Atoms # full

1 1 2 -1.1794 4.550061315217448 1.364596038448053 4.102343915199372 0 0 0
2 1 1 0.5897 4.557571628334244 2.2148435391556744 4.541884834178751 0 0 0
3 1 1 0.5897 5.235069175083371 1.4322012845541348 3.4372356379294464 0 0 0
4 2 2 -1.1794 2.932304370652849 1.2174483284765862 1.822643461061603 0 0 0
5 2 1 0.5897 3.3976202992167384 1.4057377016115313 2.6376465868315466 0 0 0
6 2 1 0.5897 2.0335748889450214 1.5020793169089084 1.9881902492360406 0 0 0
9 3 1 0.5897 5.049317494556408 4.507455937518702 3.4229950576320074 0 0 0
10 4 2 -1.1794 3.3644887074211227 4.284825600320836 3.457789175291082 0 0 0
11 4 1 0.5897 2.971721642205737 5.074595235229001 3.8294853953972865 0 0 0
12 4 1 0.5897 2.9876856421865314 4.219533566441331 2.5803150394810417 0 0 0
13 5 2 -1.1794 1.6237032070874484 2.9801844264878317 4.950159566002088 0 0 0
14 5 1 0.5897 2.423138492260373 3.185610393156111 4.465535437804509 0 0 0
15 5 1 0.5897 1.6030334910599642 2.0238684950379113 4.984654283892731 0 0 0
22 8 2 -1.1794 1.7038056412833187 4.220961297911446 1.3548634404012403 0 0 0
24 8 1 0.5897 1.7729079768501057 4.918177517638309 0.7027136783872834 0 0 0
21 7 1 0.5897 5.395247726591324 2.8504533095744904 0.9306142490633255 0 0 0
23 8 1 0.5897 1.0154317247754523 4.5168284617937315 1.9504896070293776 0 0 0
20 7 1 0.5897 3.8906235825887356 2.684354517116253 0.9179095349501862 0 0 0
19 7 2 -1.1794 4.6113425404018304 3.090893171447238 0.4368162060553399 0 0 0
27 9 1 0.5897 4.2121656502746925 4.822796962390742 0.5421988310430059 0 0 0
387 129 1 0.5897 4.237808453933675 0.036760109021418214 0.7575410378542969 0 1 0
7 3 2 -1.1794 5.964746252479232 4.697233951845579 3.217774299372726 0 0 0
99 33 1 0.5897 0.4092841460132791 4.077391653780169 4.0888461358999635 1 0 0
28 10 2 -1.1794 1.7440954085467133 0.22758078164676177 4.721676103850132 0 0 0
16 6 2 -1.1794 0.11499887283331564 1.6650914279134512 2.0139934674107107 0 0 0
25 9 2 -1.1794 4.155895442187219 5.76368433035385 0.7086978243589933 0 0 0
98 33 1 0.5897 0.21017787346595457 5.4959662531510265 3.599235074309577 1 0 0
47 16 1 0.5897 6.144783111977601 0.9282481663117146 1.376067999177948 0 0 0
867 289 1 0.5897 4.819096848511129 -0.11106823968021744 5.333204995804729 0 1 0
26 9 1 0.5897 5.0340458910877 6.008765409264807 1.0001249562316719 0 0 0
1470 490 1 0.5897 1.5744463571671463 0.019150219886754832 -0.04470510901889862 0 0 1
578 193 1 0.5897 0.05140430189732663 3.7072876305646996 9.149245753327854 1 0 0
501 167 1 0.5897 4.575425629494345 4.148691475877837 6.368260325088588 0 0 0
526 176 2 -1.1794 6.141359894603175 1.450408384217073 7.817446013124401 0 0 0
629 210 1 0.5897 2.324193581032665 5.533641905046344 10.387870616589913 0 0 0
496 166 2 -1.1794 0.24563717387917444 1.6500000678702045 7.944876724822015 0 0 0
482 161 1 0.5897 5.1851614366480625 1.0137858071296124 9.397333520723047 0 0 0
504 168 1 0.5897 1.8230566322840014 4.1999381652974055 6.279248570906329 0 0 0
528 176 1 0.5897 5.811148511447523 2.2188772353075548 7.352061599612272 0 0 0
527 176 1 0.5897 5.762377066073594 0.705828118338403 7.350388899627732 0 0 0
579 193 1 0.5897 0.5409497352633375 5.109412413502438 9.442660830531493 1 0 0
505 169 2 -1.1794 4.552792357874394 6.03931535169897 6.6116173092351875 0 0 0
500 167 1 0.5897 4.009026780513056 2.7714225360404976 6.640334481661828 0 0 0
503 168 1 0.5897 1.2004617353659663 4.78676053322472 7.528175742044686 0 0 0
498 166 1 0.5897 1.1787814153967044 1.4445776564805344 7.888475482756647 0 0 0
483 161 1 0.5897 4.683497676482359 1.9594812270356092 10.467743270532782 0 0 0
628 210 2 -1.1794 1.5868570469192844 6.010159667923325 10.769207774344524 0 0 0
494 165 1 0.5897 1.430151216433825 1.742303586198109 10.606822324329066 0 0 0
491 164 1 0.5897 2.9307056534654983 4.193668519399383 8.45586775925298 0 0 0
489 163 1 0.5897 5.175236707771147 4.304011844713518 9.434441825314725 0 0 0
484 162 2 -1.1794 2.8870940733545774 1.3632961856978245 7.660456415727856 0 0 0
485 162 1 0.5897 3.29378130939854 1.4218727459598155 8.524967673968636 0 0 0
481 161 2 -1.1794 4.509748389815847 1.1067676691833606 10.069156923941033 0 0 0
502 168 2 -1.1794 1.938310310328896 4.894208592689288 6.92801017809313 0 0 0
490 164 2 -1.1794 3.3442834841229456 4.304973025063176 9.311885480159374 0 0 0
486 162 1 0.5897 3.3527960711549523 0.6500162691703454 7.223977297044538 0 0 0
492 164 1 0.5897 2.7986418751726485 3.794663746698713 9.910241949763142 0 0 0
499 167 2 -1.1794 4.73436767990606 3.2190726493601476 6.204849712339828 0 0 0
493 165 2 -1.1794 1.3598534186073723 2.6948294959108003 10.544286456770438 0 0 0
487 163 2 -1.1794 6.080626347314025 4.344206042286516 9.126557513986171 0 0 0
508 170 2 -1.1794 1.53907714993493 -0.08123937186286401 10.401522033285302 0 0 0
150 50 1 0.5897 1.9157843694248713 6.081733340069996 5.687350281489897 0 0 0
961 321 2 -1.1794 4.3327573948230915 1.7844577905362518 15.924693398472165 0 0 0
962 321 1 0.5897 5.00092169032282 1.6179723552190106 15.259849400229076 0 0 0
963 321 1 0.5897 4.425156581447906 1.060775042120117 16.544312787338207 0 0 0
964 322 2 -1.1794 2.738733650652853 1.5517351683528533 13.612836619016186 0 0 0
965 322 1 0.5897 3.1355544259054655 1.5454596016718924 14.483870378569891 0 0 0
966 322 1 0.5897 1.803317103037292 1.4291742974680741 13.774424165034722 0 0 0
970 324 2 -1.1794 3.1737058207008366 4.548497353964323 14.908367816262187 0 0 0
971 324 1 0.5897 4.088867135967403 4.272276885644546 14.860202291418313 0 0 0
972 324 1 0.5897 2.733660100741852 3.840161219758368 15.378243440256192 0 0 0
973 325 2 -1.1794 1.3879337674382217 2.7875026917242405 16.271550985442303 0 0 0
975 325 1 0.5897 0.6542681390305553 3.302529692991844 15.93594317337046 0 0 0
982 328 2 -1.1794 1.4251142386895777 4.264887171634509 12.817417631272923 0 0 0
983 328 1 0.5897 1.5785874734406073 4.9473391820424055 12.16404838103095 0 0 0
984 328 1 0.5897 2.0684377689847153 4.440886982037674 13.503965031134209 0 0 0
990 330 1 0.5897 1.5545455485538244 0.8198872604117292 16.330467142534978 0 0 0
980 327 1 0.5897 3.7228128071479976 2.6019864946720648 12.490319577614313 0 0 0
981 327 1 0.5897 5.219650156381026 2.3777612523796248 12.51933819775544 0 0 0
986 329 1 0.5897 4.547389926573951 4.630628209270459 12.35009828957881 0 0 0
979 327 2 -1.1794 4.5466634213141806 2.947046526051071 12.146295094290886 0 0 0
1346 449 1 0.5897 3.74382710220381 0.13386418371997155 12.841137831955917 0 1 0
1008 336 1 0.5897 6.130116062733182 0.6693204668705183 13.439428974817291 0 0 0
1110 370 1 0.5897 2.2216095583523656 5.765407541909644 15.802294629011891 0 0 0
987 329 1 0.5897 3.96095762643993 5.864246132907932 13.002789333763667 0 0 0
967 323 2 -1.1794 6.089327685085675 4.538968437942294 15.12561836614748 0 0 0
1109 370 1 0.5897 0.7106757343162325 5.724044992516958 15.886083376132614 0 0 0
988 330 2 -1.1794 1.551152214253323 -0.12696545612558874 16.190418564075898 0 0 0
1347 449 1 0.5897 4.474630633720466 0.12695223556539675 11.515360003352528 0 1 0
985 329 2 -1.1794 4.62829826333839 5.583997460641108 12.376460799000542 0 0 0
976 326 2 -1.1794 0.06637635137744897 1.3799994438188845 13.884975490831211 0 0 0
495 165 1 0.5897 1.2634191711489613 2.98833056879765 11.450251130536017 0 0 0
1455 485 1 0.5897 1.5816426226398272 3.150927109443024 22.775199230062995 0 0 0
1451 484 1 0.5897 4.274840313758618 5.093545774241851 20.78193853679246 0 0 0
1463 488 1 0.5897 1.747807089090235 5.1255765885432485 18.012972532861447 0 0 0
1826 609 1 0.5897 4.236917325969076 0.04259629499920811 18.259288783553615 0 1 0
1465 489 2 -1.1794 4.870920424450043 5.922980506974764 17.837821822375595 0 0 0
1590 530 1 0.5897 2.0143205041465064 6.017935101513339 21.767204162408156 0 0 0
1452 484 1 0.5897 3.067313311225532 4.804838625641966 19.915771714311703 0 0 0
1461 487 1 0.5897 5.6209326154757075 2.7698297199723765 18.697378570717277 0 0 0
1468 490 2 -1.1794 1.70449991764804 0.16451797143783664 21.96625445794338 0 0 0
1539 513 1 0.5897 0.1992494570616567 5.55806277113496 21.039621079690242 1 0 0
1460 487 1 0.5897 4.734672377636551 2.7931731979741294 17.470274700666003 0 0 0
1446 482 1 0.5897 3.39869738361166 2.016437295681435 18.8351688826177 0 0 0
1466 489 1 0.5897 4.889650974790721 5.01599470186364 18.143088548635305 0 0 0
1459 487 2 -1.1794 4.830225718239025 3.1759209163456186 18.342387606743905 0 0 0
1444 482 2 -1.1794 2.9998373814319192 1.2293052392279353 19.20596846219177 0 0 0
1462 488 2 -1.1794 1.769703882285112 4.376631083272429 18.608611754293037 0 0 0
1453 485 2 -1.1794 1.5644772998952383 3.0468773108610003 21.823832800658963 0 0 0
1441 481 2 -1.1794 5.024292588436624 1.5022251814195315 21.13265844235314 0 0 0
1442 481 1 0.5897 4.177022665205962 1.4061224805807204 20.69785601782413 0 0 0
1464 488 1 0.5897 1.0381463588236266 4.5250142026243205 19.207762994028215 0 0 0
974 325 1 0.5897 1.446098341296494 3.0270277505817638 17.196463211333146 0 0 0
1456 486 2 -1.1794 0.11419851875069764 1.356982198912059 18.967344459131745 0 0 0
1454 485 1 0.5897 2.2714999076076414 3.609520939407613 21.508081362445765 0 0 0
1445 482 1 0.5897 2.0580508019010297 1.3947380561059026 19.16352277897468 0 0 0
1469 490 1 0.5897 1.6906198584320222 1.1164034364623097 21.86686956290084 0 0 0
1450 484 2 -1.1794 3.327296784748046 4.964665682516569 20.823005880968232 0 0 0
1443 481 1 0.5897 4.916272293182527 2.2630655263947377 21.703299767114075 0 0 0
1447 483 2 -1.1794 6.027308067235253 4.730463083120015 20.715948645649306 0 0 0
1538 513 1 0.5897 0.362268809403914 4.054906172759378 21.114770502087836 1 0 0
386 129 1 0.5897 5.0109776573629246 0.07921755482640014 22.40475592653678 0 1 -1
121 41 2 -1.1794 4.574264370026933 7.497283986520195 4.097259208689256 0 0 0
122 41 1 0.5897 3.813308115973111 7.505615699938132 3.5167074661413866 0 0 0
123 41 1 0.5897 5.3233976648559915 7.399651721101162 3.5095228077535143 0 0 0
124 42 2 -1.1794 2.711388948141262 7.8915167389256204 1.8508577097697232 0 0 0
125 42 1 0.5897 2.8881096313204933 7.022908038931782 1.4896773163431491 0 0 0
126 42 1 0.5897 3.4246484040143144 8.438118985647744 1.5212580729102334 0 0 0
129 43 1 0.5897 5.0424395054552065 10.520155724266422 2.942791851946437 0 0 0
130 44 2 -1.1794 3.299827447602522 10.561860815484772 3.378230028323212 0 0 0
132 44 1 0.5897 2.8571153358413506 9.890106742552184 3.8968117538868046 0 0 0
133 45 2 -1.1794 1.4930135714155273 9.132143444627483 4.768029338288671 0 0 0
135 45 1 0.5897 0.9409149983972036 9.729712870932248 4.26378537833392 0 0 0
137 46 1 0.5897 0.9708531462856104 7.648613420002436 2.30081246746487 0 0 0
139 47 2 -1.1794 4.665574127651623 9.300843061098568 0.6981977620180988 0 0 0
142 48 2 -1.1794 1.4825536520764528 10.807643370352109 1.3293600082542296 0 0 0
143 48 1 0.5897 2.1873781111609034 10.583253311992785 1.9368457378991915 0 0 0
144 48 1 0.5897 1.809322027637802 11.571637973475402 0.8542799489819491 0 0 0
149 50 1 0.5897 1.740468275712342 7.360009279148766 4.895499384036259 0 0 0
131 44 1 0.5897 3.095934171855085 11.383280891433188 3.825297321062352 0 0 0
140 47 1 0.5897 4.518341375529817 10.2321091136994 0.5331443342030285 0 0 0
127 43 2 -1.1794 5.961886562621669 10.636907294867052 3.1817972554316674 0 0 0
1574 525 1 0.5897 1.2884531280476494 9.403608913356528 -0.02195178689864085 0 0 1
218 73 1 0.5897 0.17632078898240083 11.219885275699523 2.6356786321527625 1 0 0
148 50 2 -1.1794 1.9916048498756593 6.440989564165787 4.803381161687381 0 0 0
134 45 1 0.5897 1.545888741318434 9.52987413421455 5.637064518686066 0 0 0
145 49 2 -1.1794 4.905790145020309 12.171018343451234 0.5405500381195095 0 0 0
168 56 1 0.5897 5.978318728488655 8.283560375685404 1.5501178358784595 0 0 0
270 90 1 0.5897 0.9665269162192851 12.24145253876163 4.6523536306810875 0 0 0
136 46 2 -1.1794 0.019213384617609193 7.682054450857475 2.3977323293798287 0 0 0
128 43 1 0.5897 6.008021170815788 11.527083594815503 3.5305433320500343 0 0 0
616 206 2 -1.1794 0.024819042773661627 7.554361902491843 7.8744884957861325 0 0 0
621 207 1 0.5897 4.490053746699312 8.647571830043923 5.685579508596467 0 0 0
625 209 2 -1.1794 4.576088635560117 11.853438520219258 6.194573541952039 0 0 0
506 169 1 0.5897 3.7695209417819884 6.210095573256093 7.134570584820409 0 0 0
1101 367 1 0.5897 4.658297895279771 8.94395773332018 11.21977173105281 0 0 0
607 203 2 -1.1794 5.982191770819091 10.865872967069786 9.387936051111339 0 0 0
627 209 1 0.5897 5.456080556625592 12.042141316585866 6.520379404170357 0 0 0
698 233 1 0.5897 0.283224857130053 11.444301611219775 9.79903821022448 1 0 0
611 204 1 0.5897 4.098065845441026 10.72661958710259 9.41338548420767 0 0 0
647 216 1 0.5897 6.106441011589179 7.373961984723277 8.690239846932592 0 0 0
622 208 2 -1.1794 1.617192411849597 10.523895071634291 6.984873985283328 0 0 0
624 208 1 0.5897 1.6266629719434138 11.348987365320589 6.499793290162939 0 0 0
620 207 1 0.5897 5.353125626820615 8.902416395264863 6.902937953747809 0 0 0
613 205 2 -1.1794 1.6235586897058276 8.745481224607316 10.560339672301632 0 0 0
610 204 2 -1.1794 3.1723057239536336 10.53481563650746 9.264007914032456 0 0 0
606 202 1 0.5897 1.9334713460590016 7.7712434469406695 8.030514273542643 0 0 0
626 209 1 0.5897 4.526716416144723 10.89772419818922 6.176452519710615 0 0 0
602 201 1 0.5897 4.777342126514316 6.576375161649698 10.90098061835924 0 0 0
612 204 1 0.5897 2.704886555599196 11.185626182393152 9.787584936231589 0 0 0
604 202 2 -1.1794 2.849083370960125 7.582327362230855 8.23570335800634 0 0 0
614 205 1 0.5897 2.261127698697814 9.230486626916903 10.036471972022202 0 0 0
603 201 1 0.5897 4.1936179400496965 7.20246014755963 9.652346200341299 0 0 0
630 210 1 0.5897 1.8596715587373556 6.927473402961828 10.752787781971742 0 0 0
623 208 1 0.5897 2.286107381260165 10.634973296177332 7.660439776352312 0 0 0
605 202 1 0.5897 3.346519826461975 8.2157824118297 7.7185294070179635 0 0 0
619 207 2 -1.1794 4.508511467255394 9.128044830892485 6.513235600275322 0 0 0
699 233 1 0.5897 0.6394516350650837 10.671385741179066 8.547036087564488 1 0 0
601 201 2 -1.1794 4.97088349687386 7.210787859067271 10.210871217384174 0 0 0
615 205 1 0.5897 0.7784237810871131 8.95176930388333 10.161167075965224 0 0 0
507 169 1 0.5897 4.382995082724211 6.474174609255083 5.775991296987276 0 0 0
648 216 1 0.5897 6.051902313052512 6.842373015751666 7.2738055194312405 0 0 0
748 250 2 -1.1794 1.5232547413667432 12.227473942205235 10.689166030356834 0 0 0
1081 361 2 -1.1794 4.710938305224459 7.827544945154417 15.725791914964015 0 0 0
1082 361 1 0.5897 4.6280416743137875 8.523606011377481 16.377573430197437 0 0 0
1083 361 1 0.5897 4.881659329046961 7.037631011642472 16.238702346159798 0 0 0
1084 362 2 -1.1794 2.827985763386691 7.753554272315357 13.446632772644783 0 0 0
1085 362 1 0.5897 3.392799206099948 7.733967167439518 14.21915611127127 0 0 0
1086 362 1 0.5897 3.2755017752313345 8.340225473994087 12.8369369400661 0 0 0
1089 363 1 0.5897 4.978279096869736 11.047824213378506 15.213126905650926 0 0 0
1090 364 2 -1.1794 3.200167829351315 10.928326627142427 15.128215534957368 0 0 0
1091 364 1 0.5897 2.5780149094972415 11.582822360934106 15.445580707019174 0 0 0
1092 364 1 0.5897 2.959691969061816 10.125003574163584 15.589749955375398 0 0 0
1095 365 1 0.5897 1.0095714277793577 9.23224628782164 15.974916587856336 0 0 0
1097 366 1 0.5897 1.095991644948274 7.314477561474497 13.660305730009911 0 0 0
1099 367 2 -1.1794 4.626769316348431 9.324557555592687 12.097472083444469 0 0 0
1102 368 2 -1.1794 1.472341062236668 10.573430292499788 12.834234132262093 0 0 0
1104 368 1 0.5897 2.232664554288383 10.690858360926914 13.403698822793618 0 0 0
1093 365 2 -1.1794 1.7486612949704938 8.896123772438228 16.481793775110482 0 0 0
1103 368 1 0.5897 1.7292684015489923 9.875484792776131 12.23170792588088 0 0 0
1100 367 1 0.5897 5.369120385223588 8.931468957457895 12.556330712173828 0 0 0
1107 369 1 0.5897 4.663536086159762 11.133835113327583 11.902647658262586 0 0 0
1094 365 1 0.5897 1.6400472299821118 7.94533612573813 16.462838331037375 0 0 0
1179 393 1 0.5897 0.38875506559153544 10.668606605412332 14.220512575135801 1 0 0
1127 376 1 0.5897 5.714356107575306 7.695447808519632 14.329095247162549 0 0 0
750 250 1 0.5897 1.3989241128343755 11.760902859079048 11.515637247246405 0 0 0
1105 369 2 -1.1794 4.721249880610399 12.062564073448511 12.126897490970759 0 0 0
1108 370 2 -1.1794 1.4814553697895143 6.111036391591739 16.301163802583638 0 0 0
1087 363 2 -1.1794 5.9140681929687915 10.938248818135522 15.04453151791184 0 0 0
1096 366 2 -1.1794 0.1426008959765066 7.248212746009001 13.607457884658636 0 0 0
1178 393 1 0.5897 0.19122304020139513 11.478549946820086 15.484153239191413 1 0 0
1128 376 1 0.5897 5.786992314249907 6.802433476413435 13.108821721648038 0 0 0
1588 530 2 -1.1794 1.2790594455356297 6.279226342050029 22.321532310070403 0 0 0
1709 570 1 0.5897 0.7037731505122851 12.174738496640787 21.722548696090477 0 0 0
141 47 1 0.5897 4.55736626148943 8.885468070703322 22.79071728790479 0 0 -1
1467 489 1 0.5897 5.424085928412182 6.39669072245485 18.45893264995761 0 0 0
1562 521 1 0.5897 4.311999639863893 6.892068925885234 21.988895659836444 0 0 0
1658 553 1 0.5897 0.15148492469146088 10.078945829552756 21.088039416596672 1 0 0
1564 522 2 -1.1794 2.8437846650701952 7.5646475191701255 19.02480406560519 0 0 0
1710 570 1 0.5897 2.2124631500863448 12.211654211162411 21.603626204861015 0 0 0
1576 526 2 -1.1794 0.12217715218944641 7.586942035982496 18.96408240761292 0 0 0
1572 524 1 0.5897 4.079767392957757 10.896542863718738 20.685203235399335 0 0 0
1561 521 2 -1.1794 4.423763053974673 7.674269836191704 21.448668944942902 0 0 0
1582 528 2 -1.1794 1.6102166446187323 10.871350043163112 18.528896480620894 0 0 0
1575 525 1 0.5897 1.9997357447988158 9.33833757602772 21.5913345137473 0 0 0
1587 529 1 0.5897 4.80980512533434 11.393796005598412 17.716669804874705 0 0 0
1566 522 1 0.5897 3.3203152843301837 6.916106014335378 18.506651546737523 0 0 0
1565 522 1 0.5897 1.9214274560928883 7.343059617260719 18.89714113642355 0 0 0
1563 521 1 0.5897 3.8420837620353714 7.534966365089047 20.70138852665241 0 0 0
1570 524 2 -1.1794 3.157195230257396 10.77531596083168 20.9094778084917 0 0 0
1581 527 1 0.5897 5.255395539192035 8.852525934156999 18.172179775896396 0 0 0
1571 524 1 0.5897 2.702886131242337 10.779546780365504 20.066990815717183 0 0 0
1573 525 2 -1.1794 1.254094166333787 8.976544542245326 22.07016940462075 0 0 0
1584 528 1 0.5897 1.6219193377343444 10.153501595402314 17.895854906068486 0 0 0
1580 527 1 0.5897 3.8486314928897376 9.397777756303109 18.296175224605776 0 0 0
1579 527 2 -1.1794 4.708423864298529 9.598641222971745 17.926641393376762 0 0 0
1583 528 1 0.5897 0.8211897237844209 10.719750812515716 19.049100860802888 0 0 0
1589 530 1 0.5897 1.2556003115120953 7.233770994854988 22.25484007151733 0 0 0
1567 523 2 -1.1794 5.760955740810386 10.651907774125172 20.754047591340168 0 0 0
1569 523 1 0.5897 6.163851189277916 11.445940738086689 21.105258017367298 0 0 0
1585 529 2 -1.1794 4.778089270870314 12.350357327705952 17.704907993875132 0 0 0
1568 523 1 0.5897 6.162018292286608 10.540332592580477 19.892130261249925 0 0 0
241 81 2 -1.1794 5.134911075135566 13.502388893741832 4.178344107249531 0 0 0
242 81 1 0.5897 4.879360870844206 12.889250811413497 4.867504177159334 0 0 0
243 81 1 0.5897 4.349894077127596 13.59820254153215 3.6391503339347318 0 0 0
244 82 2 -1.1794 3.201400920656472 13.612171466703836 2.1111318746135947 0 0 0
245 82 1 0.5897 2.29520736874154 13.863965898096538 2.28880539206764 0 0 0
246 82 1 0.5897 3.5743861166642894 14.365435932241756 1.6532556667783318 0 0 0
250 84 2 -1.1794 3.298110521096804 17.206243032795733 3.457195125685445 0 0 0
251 84 1 0.5897 3.0432535024027447 17.315975082606734 2.541105544816431 0 0 0
252 84 1 0.5897 4.246345188861451 17.0790342413555 3.4288832971854215 0 0 0
253 85 2 -1.1794 1.5429454315697286 15.39846465918514 4.705025134982895 0 0 0
255 85 1 0.5897 2.363499855035446 15.789584066840986 4.4052502189648655 0 0 0
259 87 2 -1.1794 4.693555779602155 15.583972131081302 0.8754825994293063 0 0 0
262 88 2 -1.1794 1.4617690710991715 17.418643177801897 1.3134865432146772 0 0 0
263 88 1 0.5897 1.5003819404449614 16.59345463597655 0.8300090164845076 0 0 0
264 88 1 0.5897 1.5086251390602823 18.095025908077766 0.6378399948484352 0 0 0
254 85 1 0.5897 0.8631599682114411 15.864089013622111 4.217948461400689 0 0 0
269 90 1 0.5897 1.511387476143384 13.596559643283467 5.050495212019894 0 0 0
260 87 1 0.5897 4.747944425040253 16.536406295147017 0.9533595954100287 0 0 0
146 49 1 0.5897 5.662243924674257 12.582831252291916 0.9580932455733386 0 0 0
247 83 2 -1.1794 6.02929908653529 16.96211876221615 3.3861463123606486 0 0 0
147 49 1 0.5897 4.148541590428228 12.595088909010652 0.9441487530022621 0 0 0
265 89 2 -1.1794 4.6109499147702415 18.46960697539685 0.5469681090325813 0 0 0
261 87 1 0.5897 4.654411668292267 15.422106480839428 -0.06711158741321788 0 0 0
389 130 1 0.5897 2.3363932220262797 18.63204953546213 4.248026387958503 0 0 0
740 247 1 0.5897 4.975875376846728 14.976917300070607 5.611722959603096 0 0 0
338 113 1 0.5897 0.18612181649144185 17.403095292111423 2.5851589176971905 1 0 0
288 96 1 0.5897 5.99099109741675 14.4900172373558 1.4241910382614802 0 0 0
339 113 1 0.5897 0.276384856979318 17.926011533048154 4.002996372848166 1 0 0
268 90 2 -1.1794 1.7036207896780422 12.660051847249122 5.096904153506291 0 0 0
256 86 2 -1.1794 0.37682714846117416 13.970497033898674 2.2101200695555976 0 0 0
258 86 1 0.5897 0.10574410763701776 13.157738095206046 1.7833826016244871 0 0 0
257 86 1 0.5897 0.007542410216171729 14.663577197157817 1.6629082769494459 0 0 0
818 273 1 0.5897 0.3836779309241642 16.884261727978902 8.382363875965693 1 0 0
1106 369 1 0.5897 4.707336691448426 12.514452726107756 11.283210431297476 0 0 0
743 248 1 0.5897 1.630832418778249 17.763911790393045 6.449985124064364 0 0 0
870 290 1 0.5897 2.3559016476981776 18.328289506943776 10.186689319608378 0 0 0
727 243 2 -1.1794 6.089739125151752 16.674376390371783 9.208892655918238 0 0 0
736 246 2 -1.1794 0.1494963557513424 13.998366202667027 7.7941881315968455 0 0 0
745 249 2 -1.1794 4.655479963446561 18.310146650553854 6.381500847734419 0 0 0
721 241 2 -1.1794 4.656472946311384 13.606157472408201 9.913642546373113 0 0 0
739 247 2 -1.1794 4.760736145297439 15.427142029293746 6.428553282127123 0 0 0
869 290 1 0.5897 0.8443905707991555 18.338533799622816 10.103588652831657 0 0 0
725 242 1 0.5897 3.7283593848829986 14.220552913018754 7.3776226243667535 0 0 0
722 241 1 0.5897 3.805157996428259 13.682451994636827 9.482838811035371 0 0 0
730 244 2 -1.1794 3.3522793468281744 16.992896865787927 9.135101526853523 0 0 0
1221 407 1 0.5897 4.629960606503468 15.145920262013323 11.225632229528324 0 0 0
741 247 1 0.5897 4.809532270528058 16.357668515049795 6.20970180141123 0 0 0
749 250 1 0.5897 1.626205423477548 13.144244717839 10.944296785938143 0 0 0
732 244 1 0.5897 2.7698255283068645 16.515752939845648 9.726082433707568 0 0 0
728 243 1 0.5897 5.13571314057224 16.744075833000018 9.24219376604293 0 0 0
724 242 2 -1.1794 2.886892090302488 13.859839719023228 7.656877991427155 0 0 0
742 248 2 -1.1794 1.6585872935540869 16.951602635242757 6.955516624661537 0 0 0
726 242 1 0.5897 2.7090900571270184 13.15540657348083 7.033696078167939 0 0 0
723 241 1 0.5897 5.282823045490951 13.524282112838097 9.19450320587838 0 0 0
744 248 1 0.5897 1.689870300400969 16.25913705638626 6.295442016916966 0 0 0
733 245 2 -1.1794 1.7023588645944412 15.149060048929949 10.78238090872113 0 0 0
735 245 1 0.5897 0.9876615263067574 15.49144400166854 10.245590851075885 0 0 0
737 246 1 0.5897 1.0267549570578025 14.362178435435807 7.913329482852105 0 0 0
731 244 1 0.5897 2.922302572593042 16.94194297058928 8.281446944249033 0 0 0
768 256 1 0.5897 6.071032451686318 14.08752689971848 7.186330700246188 0 0 0
1201 401 2 -1.1794 4.531704582155653 14.08987606566574 15.534170635933958 0 0 0
1202 401 1 0.5897 5.244384110667268 14.076826880259082 14.895354248889173 0 0 0
1203 401 1 0.5897 4.714438169745451 13.349592329632486 16.11276342193579 0 0 0
1204 402 2 -1.1794 2.916657943598931 13.941883487322034 13.43501650497442 0 0 0
1205 402 1 0.5897 3.4646356808749483 13.840774832615486 14.213277165685247 0 0 0
1206 402 1 0.5897 3.1536925638140714 13.201405354449737 12.876731940238999 0 0 0
1210 404 2 -1.1794 3.082200194151958 17.045135365372865 14.958120320704895 0 0 0
1211 404 1 0.5897 2.722593353911582 17.686512811481357 15.57089822327508 0 0 0
1212 404 1 0.5897 4.030780813251383 17.11981759656721 15.061805255764533 0 0 0
1213 405 2 -1.1794 1.510909886224679 15.247642017587934 16.434662531227097 0 0 0
1214 405 1 0.5897 0.7875678064799824 15.668950501843467 15.970513428448642 0 0 0
1215 405 1 0.5897 2.29861676098439 15.638799818695515 16.056952971848347 0 0 0
1218 406 1 0.5897 1.0149792446121322 13.987497510722108 13.769217234131505 0 0 0
1222 408 2 -1.1794 1.4276659369131834 16.946280117149634 12.851915620437497 0 0 0
1223 408 1 0.5897 1.5831225893360503 17.672114767190088 12.247617228093237 0 0 0
1224 408 1 0.5897 2.0545119423967257 17.086356010366437 13.561578416458929 0 0 0
1229 410 1 0.5897 1.2034589431772746 13.584601444959286 16.36525795408121 0 0 0
1220 407 1 0.5897 3.947712262320335 15.436669318077813 12.545410331550533 0 0 0
1219 407 2 -1.1794 4.691934288609194 15.699596063893141 12.003965016668786 0 0 0
1227 409 1 0.5897 4.536796622847419 17.487227524448443 11.67620975404933 0 0 0
1228 410 2 -1.1794 1.3926041044280533 12.646849142412902 16.333537104623275 0 0 0
1207 403 2 -1.1794 5.9137246043167915 17.108047349352283 14.96760072321143 0 0 0
1298 433 1 0.5897 0.08482671911869254 16.962352028955216 14.164951507848398 1 0 0
1248 416 1 0.5897 5.949870350708853 13.156884479336739 12.880981141942785 0 0 0
1700 567 1 0.5897 4.887633601927813 15.455128228759367 16.95955185538169 0 0 0
1350 450 1 0.5897 0.761773479885947 18.409441994737925 15.864757636482183 0 0 0
1225 409 2 -1.1794 4.4253319443813055 18.430476208470886 11.794618451508956 0 0 0
1247 416 1 0.5897 5.802782607034914 14.637938635558946 13.157678110011586 0 0 0
1216 406 2 -1.1794 0.07043361119078596 13.857024166257222 13.852546394532665 0 0 0
734 245 1 0.5897 1.6738758756734797 15.67336662664982 11.582687484520884 0 0 0
1693 565 2 -1.1794 1.5019795504869269 15.449280266394977 22.44164541213901 0 0 0
1689 563 1 0.5897 4.97175759901569 16.757490903149225 20.47788568018126 0 0 0
1586 529 1 0.5897 5.491015159933009 12.621232539337877 18.283294734096415 0 0 0
1696 566 2 -1.1794 0.20049024245498867 14.298569203150738 19.27500913490752 0 0 0
1230 410 1 0.5897 1.519241628426041 12.396489184876147 17.24868784683852 0 0 0
1778 593 1 0.5897 0.29421406784325027 17.075838322849023 20.010742694204097 1 0 0
1708 570 2 -1.1794 1.463682106241179 12.728968221054021 21.900057629103337 0 0 0
1685 562 1 0.5897 3.426453719336821 13.557256121623073 18.562507745312885 0 0 0
1692 564 1 0.5897 2.615974499239624 16.815422725986686 19.95378718668674 0 0 0
1687 563 2 -1.1794 5.902602178560918 16.959944177235016 20.571013362557707 0 0 0
1684 562 2 -1.1794 3.0289928185967803 14.186859292808142 19.164009606375927 0 0 0
1694 565 1 0.5897 0.7557918339556612 15.740590958795687 21.91771337860302 0 0 0
1699 567 2 -1.1794 4.742098800365012 15.894068238260816 17.7976254264629 0 0 0
1691 564 1 0.5897 2.618405696504461 16.25400022122232 21.35972168138771 0 0 0
1779 593 1 0.5897 0.5968607643009943 17.735706718986123 21.33920074513039 1 0 0
1703 568 1 0.5897 1.6996153538298777 16.526758956243334 17.73480793228233 0 0 0
1682 561 1 0.5897 5.041296546170093 14.018944028178883 20.715390884716342 0 0 0
1683 561 1 0.5897 4.832565159140705 13.268619172759486 22.01356709625565 0 0 0
1690 564 2 -1.1794 3.1374700212059525 16.785130152607188 20.755858534702142 0 0 0
1704 568 1 0.5897 1.573727389915353 17.933271110134115 18.28033275667765 0 0 0
1707 569 1 0.5897 4.898639929525439 17.70535711353419 17.861813290172144 0 0 0
1701 567 1 0.5897 4.0238388914163234 15.407414478208622 18.20188011428842 0 0 0
1702 568 2 -1.1794 1.5483429976335679 17.013736730448343 18.54485113963679 0 0 0
1681 561 2 -1.1794 4.477523614378398 13.985635646401438 21.488203694242493 0 0 0
1686 562 1 0.5897 3.315851122879998 13.903480888760814 20.032120025799635 0 0 0
1697 566 1 0.5897 1.1555001352512941 14.263606856787542 19.221435864961535 0 0 0
1695 565 1 0.5897 1.5315810783111456 14.501548639267638 22.31093545933458 0 0 0
1728 576 1 0.5897 6.014635708322766 14.725281890675785 18.939091093959547 0 0 0
361 121 2 -1.1794 4.608320463456991 20.11868077017153 4.209867201589587 0 0 0
362 121 1 0.5897 3.909212387074081 19.90704841808872 3.5912979115146095 0 0 0
364 122 2 -1.1794 2.8814128727414565 19.978550091448916 2.0225403549330285 0 0 0
365 122 1 0.5897 3.2147443116613794 20.826520667168616 1.729290613155587 0 0 0
370 124 2 -1.1794 3.517862133402493 23.509975637026834 3.408592363225909 0 0 0
371 124 1 0.5897 4.462849754851085 23.533229037988036 3.5588902795433146 0 0 0
372 124 1 0.5897 3.2107588711112225 22.76585699262305 3.926420107919957 0 0 0
373 125 2 -1.1794 1.5860311080160614 21.83247278476282 4.716348897715256 0 0 0
381 127 1 0.5897 5.375484677968542 21.539316595930885 1.0533908091085833 0 0 0
382 128 2 -1.1794 1.4861808637156104 23.144247640684462 1.146255778374729 0 0 0
383 128 1 0.5897 2.332625861782764 23.31631090842412 1.558653348372554 0 0 0
390 130 1 0.5897 1.6308986261678344 19.896843874685104 4.6887926785877525 0 0 0
375 125 1 0.5897 0.7359381347661109 22.072561398694525 4.347773183432317 0 0 0