LAMMPS data file via write_data, version 30 Jul 2021, timestep = 35250000

864 atoms
2 atom types
576 bonds
1 bond types
288 angles
1 angle types

0.15831691308605933 18.049255486915683 xlo xhi
0.17863641336107783 23.45054138664476 ylo yhi
0.12883491646499934 22.084360883528 zlo zhi

Masses

1 1.00794
2 15.9994

Atoms # full

707 1 1 0.5897 3.18221930362623 1.8362946055345453 4.121964105460923 0 0 0
706 1 2 -1.1794 3.2033715582511326 1.714178649988509 3.172748004663492 0 0 0
30 1 1 0.5897 5.313307950907643 3.964787527876701 2.579645488116498 0 0 0
708 1 1 0.5897 2.40147610316237 2.132484318938971 2.8590213950976806 0 0 0
29 1 1 0.5897 4.581603142408117 2.641011126097616 2.5134425971446275 0 0 0
28 1 2 -1.1794 5.377198929508925 3.0819887961293055 2.2151091169723323 0 0 0
495 1 1 0.5897 8.370216106046646 2.217599669754111 2.7878497133878404 0 0 0
1 1 2 -1.1794 0.9347480242766478 2.9472040390145375 2.396295229123915 0 0 0
494 1 1 0.5897 6.86358359771041 2.2961894157910403 2.9159835983010187 0 0 0
493 1 2 -1.1794 7.626850764899547 1.8169595537726486 3.238763866664743 0 0 0
846 1 1 0.5897 7.5773814203964305 1.87763003281677 4.994281121690978 0 0 0
3 1 1 0.5897 0.9601362118649495 3.8660965730569488 2.663295058964359 0 0 0
136 1 2 -1.1794 5.332441703225589 5.710482147358357 3.031728293196554 0 0 0
597 1 1 0.5897 0.8631492945679796 5.766283565423707 3.977242749863454 0 0 0
595 1 2 -1.1794 0.8489204712585395 5.6919952716735995 3.0229632182579222 0 0 0
137 1 1 0.5897 5.260530621621264 5.836658751090523 3.9779236379040284 0 0 0
668 1 1 0.5897 5.267050194800242 3.2082746271144154 0.460915609752322 0 0 0
20 1 1 0.5897 0.8839518700360927 3.0599403965971685 0.5266495805243381 0 0 0
487 1 2 -1.1794 3.116318725179568 1.9159222691381823 5.958370734435035 0 0 0
276 1 1 0.5897 6.060052502244998 2.599811117827664 9.803668553961945 0 0 0
176 1 1 0.5897 9.054244128093966 2.841488144772766 9.72122906957397 0 0 0
488 1 1 0.5897 2.3171959008015666 2.3865735821910405 6.195704338519268 0 0 0
685 1 2 -1.1794 5.38795850976525 5.890339297496248 5.804841296771587 0 0 0
181 1 2 -1.1794 0.9937389245099547 5.75368884572554 5.755874890587345 0 0 0
674 1 1 0.5897 3.7748504627311332 2.2118342599223886 10.183200937137716 0 0 0
34 1 2 -1.1794 0.785334867909448 3.1464757530750798 9.53297162997262 0 0 0
355 1 2 -1.1794 7.645496213364764 1.8940738142331537 10.289239060797621 0 0 0
489 1 1 0.5897 2.959687493648545 1.016625698341663 6.2465388070492684 0 0 0
356 1 1 0.5897 7.5720714912141585 0.9663657370738462 10.065043386814782 0 0 0
676 1 2 -1.1794 5.442445240017808 5.644424563943659 10.270868550685721 0 0 0
675 1 1 0.5897 2.9674104135619657 0.9316974575974839 10.22160424160464 0 0 0
83 1 1 0.5897 4.565325156591986 2.788329846100662 6.450415413598987 0 0 0
183 1 1 0.5897 1.0206038140581235 4.908478052320062 6.204432258334243 0 0 0
82 1 2 -1.1794 5.358482865703313 3.236356211273316 6.7447069266481 0 0 0
678 1 1 0.5897 5.396178729647369 4.737530358336814 9.968033437648343 0 0 0
275 1 1 0.5897 5.34379774658279 3.079522349707624 8.559016831945215 0 0 0
35 1 1 0.5897 0.8575332366710798 4.07014452400869 9.773641088661785 0 0 0
274 1 2 -1.1794 5.260098250831963 3.0371752266186127 9.511684412049782 0 0 0
84 1 1 0.5897 6.073042857232037 2.654044460155554 6.4863922198993365 0 0 0
112 1 2 -1.1794 0.8007087319092311 5.907769323885262 10.13356512429719 0 0 0
673 1 2 -1.1794 2.937860877249309 1.8532791099743011 10.47873229153876 0 0 0
844 1 2 -1.1794 7.597572380749306 1.9646316783265032 5.9473792992024785 0 0 0
36 1 1 0.5897 1.5872003878965155 2.7471376349686656 9.870585666526127 0 0 0
784 1 2 -1.1794 0.8813392055513439 3.213751120717682 6.773563279082461 0 0 0
845 1 1 0.5897 7.616801830022741 1.063706525071551 6.270275034868893 0 0 0
686 1 1 0.5897 5.488256051581364 5.00428249628643 6.152908908947232 0 0 0
419 1 1 0.5897 9.080929653646077 2.8317535801836544 6.417372936449674 0 0 0
785 1 1 0.5897 0.8203279638578883 3.0970139304984654 7.7217301245383885 0 0 0
113 1 1 0.5897 0.8134290143300884 5.974808599565789 11.08840500090073 0 0 0
166 1 2 -1.1794 2.855311936822074 1.7097972253042963 13.178590478785475 0 0 0
167 1 1 0.5897 2.9319757832670628 1.6867314571924075 12.224669946491774 0 0 0
457 1 2 -1.1794 4.9378578985856505 3.314732939658928 13.956979391759884 0 0 0
458 1 1 0.5897 5.686255607046307 2.8212166420607403 13.621176637519952 0 0 0
459 1 1 0.5897 4.174994067350385 2.7920894090144337 13.709380295264786 0 0 0
762 1 1 0.5897 5.130984029074601 4.98309291770399 13.344443970635187 0 0 0
594 1 1 0.5897 8.085304659748665 2.3355680769823253 13.430682059609289 0 0 0
168 1 1 0.5897 2.0261150083949193 2.1594573936985264 13.341935098425786 0 0 0
71 1 1 0.5897 5.208596874647888 3.357376182766526 15.850503123199202 0 0 0
592 1 2 -1.1794 7.237572021643558 2.024465189695228 13.112818979956725 0 0 0
466 1 2 -1.1794 0.6955648841155051 3.3261617257791505 13.684998703048505 0 0 0
593 1 1 0.5897 7.231223087070594 1.0902547075961455 13.321401064341112 0 0 0
468 1 1 0.5897 0.7792371503025236 3.367620267730686 14.637705912541069 0 0 0
365 1 1 0.5897 0.729837459218874 5.032705143890321 13.054438150148755 0 0 0
761 1 1 0.5897 5.372091402046449 5.827873564394932 12.111399766016008 0 0 0
760 1 2 -1.1794 5.265970924169832 5.887353846858085 13.060911343667 0 0 0
133 1 2 -1.1794 1.0025932203653827 3.269505259223556 16.43406558174172 0 0 0
364 1 2 -1.1794 0.724555875809849 5.970986483937756 12.864983514967065 0 0 0
357 1 1 0.5897 7.503786330755511 1.9242660375896306 11.235485227634456 0 0 0
599 1 1 0.5897 8.88437774954618 2.7655276895619956 16.899384682067403 0 0 0
81 1 1 0.5897 3.1516608743143717 0.24443596725773753 21.036026827886708 0 1 0
144 1 1 0.5897 5.339260843305879 5.9399014889115325 19.638091222370967 0 0 0
323 1 1 0.5897 7.417581110404112 0.28357178884698636 16.913816838844788 0 1 0
40 1 2 -1.1794 7.408794716204364 1.9001807192637405 20.343238679667976 0 0 0
569 1 1 0.5897 2.35803314573781 2.340240882894739 20.84165634406046 0 0 0
70 1 2 -1.1794 5.30978829450046 3.330708444851649 16.802039703320652 0 0 0
135 1 1 0.5897 0.22858164450354934 2.7946591133515697 16.737145130422505 0 0 0
669 1 1 0.5897 4.6244078946342295 2.8331676509198807 21.0978858272989 0 0 0
42 1 1 0.5897 7.385893680118272 1.055744306333592 20.793472321219028 0 0 0
290 1 1 0.5897 3.037570531910154 1.238973105272063 17.50730214171386 0 0 0
756 1 1 0.5897 6.727648630917575 2.3759743946993437 17.39549085208777 0 0 0
755 1 1 0.5897 7.534097533115875 1.9226019277774826 18.593991313178456 0 0 0
72 1 1 0.5897 4.545261650442158 2.8445177857261768 17.111154147044314 0 0 0
568 1 2 -1.1794 3.165972966056237 1.9358475187953028 20.525205387542073 0 0 0
41 1 1 0.5897 6.645509581866249 2.371268461046127 20.67775389529888 0 0 0
21 1 1 0.5897 0.7689576284761764 3.92454009345805 21.244669045508182 0 0 0
278 1 1 0.5897 5.294130728546369 4.946354214809023 17.573990615032006 0 0 0
134 1 1 0.5897 0.9409038559958972 4.125034061740496 16.859008022013537 0 0 0
143 1 1 0.5897 5.397846581944855 5.0917867309779865 20.89088456678839 0 0 0
277 1 2 -1.1794 5.285177359067324 5.84851924188239 17.89386032494381 0 0 0
646 1 2 -1.1794 0.6744249711656648 5.605267348143426 20.539249467835592 0 0 0
19 1 2 -1.1794 0.9042191761728193 3.0196217357981268 21.525965961957045 0 0 0
570 1 1 0.5897 3.131762249937792 2.0432445920960727 19.574591477751724 0 0 0
667 1 2 -1.1794 5.36211406900417 3.316575490932494 21.470076945872364 0 0 0
648 1 1 0.5897 0.6340629665037828 5.614147119561558 19.582866111789695 0 0 0
571 1 2 -1.1794 0.7848399156306455 5.710933713786 17.80084461821007 0 0 0
289 1 2 -1.1794 3.090405007694903 2.160486601414119 17.760915759074955 0 0 0
291 1 1 0.5897 2.328409303037048 2.5670870253084437 17.348028113535605 0 0 0
754 1 2 -1.1794 7.526070623976331 1.9062059485634715 17.636891631318985 0 0 0
360 1 1 0.5897 9.003962015414077 2.5841801888452203 21.114903900523124 0 0 0
123 1 1 0.5897 3.078039862289671 8.854915862153657 2.676624329492748 0 0 0
121 1 2 -1.1794 3.0958643456466013 9.781979461046244 2.9143824763902075 0 0 0
122 1 1 0.5897 3.0932725794708857 9.784351654400233 3.8716488637091957 0 0 0
44 1 1 0.5897 1.593843692290898 10.497457772580779 2.414815988019197 0 0 0
218 1 1 0.5897 6.1192564850518965 10.666727367190674 2.2978273636117192 0 0 0
417 1 1 0.5897 8.236662666426545 6.840434062736528 2.6030087116496325 0 0 0
219 1 1 0.5897 4.606280762951543 10.663575690219592 2.239183922570216 0 0 0
254 1 1 0.5897 2.941174761440085 6.997813589957801 1.171558393647688 0 0 0
415 1 2 -1.1794 7.480987359000865 7.332010728307693 2.2809335677912563 0 0 0
217 1 2 -1.1794 5.374821830374802 11.144476659284914 1.9317675369553462 0 0 0
66 1 1 0.5897 7.482862304695227 9.90708342304439 4.073087658249431 0 0 0
65 1 1 0.5897 7.570903857521181 9.108011981441804 2.7901536608662374 0 0 0
64 1 2 -1.1794 7.534439730539775 10.005055703594879 3.122240044445551 0 0 0
253 1 2 -1.1794 3.0396538279762004 7.07145977601784 2.12090019100129 0 0 0
255 1 1 0.5897 2.2604246901186893 6.644238135509418 2.4768789862939955 0 0 0
416 1 1 0.5897 6.726922352775883 6.7852481462136955 2.501993676433144 0 0 0
43 1 2 -1.1794 0.7686492480728511 10.879462599397115 2.1155288627602227 0 0 0
396 1 1 0.5897 0.781747547848671 10.947094699460513 0.2030211624412363 0 0 0
162 1 1 0.5897 7.680096154220257 7.207688383114796 0.4881631879284029 0 0 1
138 1 1 0.5897 4.5072468965135855 6.0463255301964045 2.6814224113768494 0 0 0
773 1 1 0.5897 9.051735256240997 10.854930401789872 2.404601843796755 0 0 0
45 1 1 0.5897 0.7973455528583266 11.784963188743655 2.424630369897842 0 0 0
363 1 1 0.5897 5.277012949221837 11.097397809500979 0.19118553775749803 0 0 1
712 1 2 -1.1794 7.430748544694842 9.550421232114427 5.897684049681745 0 0 0
579 1 1 0.5897 5.258086993947258 11.706857999888424 6.510312646337241 0 0 0
651 1 1 0.5897 4.000973721932132 6.571508935239855 9.738894795418654 0 0 0
793 1 2 -1.1794 3.0593608592962287 9.66028650813106 5.637460175190787 0 0 0
552 1 1 0.5897 0.7754744966148759 11.71418019291458 6.620047265752106 0 0 0
10 1 2 -1.1794 3.1768551415106723 7.183828558368145 6.739893466691532 0 0 0
578 1 1 0.5897 5.917338281790921 10.344717282596811 6.4645784979781915 0 0 0
114 1 1 0.5897 1.6178701878579944 6.320123417035324 9.853104884596133 0 0 0
714 1 1 0.5897 7.52816600556109 8.628640146224841 6.136691758026489 0 0 0
820 1 2 -1.1794 7.32072235983761 9.524055691337274 10.362706687262214 0 0 0
677 1 1 0.5897 6.190831935413038 6.015654805552255 9.803387423360299 0 0 0
822 1 1 0.5897 8.108405435756989 9.990696898186807 10.08298950039766 0 0 0
527 1 1 0.5897 7.545744378657371 7.817050445608353 9.709171878595392 0 0 0
256 1 2 -1.1794 2.858379589256185 9.543425057355455 10.486884302369669 0 0 0
551 1 1 0.5897 0.8357866795392371 10.832620129418485 7.849433460693396 0 0 0
145 1 2 -1.1794 7.759801993056789 6.915646370891814 6.527488505973278 0 0 0
713 1 1 0.5897 8.273633637511194 9.946277977964792 6.1197416148365775 0 0 0
146 1 1 0.5897 6.90918482523169 6.547693252789062 6.287669632241384 0 0 0
12 1 1 0.5897 3.192839840797996 8.080284088156699 6.404616949132056 0 0 0
687 1 1 0.5897 4.588776686454221 6.2205140249418704 6.2156196371858385 0 0 0
650 1 1 0.5897 3.2042491381560865 7.073635441424453 8.55339870143234 0 0 0
581 1 1 0.5897 5.902012085687871 10.305023476063635 9.791256691388076 0 0 0
577 1 2 -1.1794 5.16714033454262 10.810644567978821 6.8340898483591355 0 0 0
258 1 1 0.5897 3.661708116788687 9.970179456718988 10.18858069201342 0 0 0
15 1 1 0.5897 1.4001633418692532 10.318721803231925 9.964603649775984 0 0 0
528 1 1 0.5897 8.353455061163027 6.536675312747889 9.688281315797191 0 0 0
13 1 2 -1.1794 0.5999697842642349 10.763053412182144 9.68407615519424 0 0 0
794 1 1 0.5897 2.28300438893282 10.058731147413958 6.031094983363783 0 0 0
795 1 1 0.5897 3.7955569136597322 10.127486371783839 6.032639061206404 0 0 0
580 1 2 -1.1794 5.11304673281019 10.785917603629917 9.540847047468967 0 0 0
550 1 2 -1.1794 0.8415724865148402 10.799002415008903 6.892768233805316 0 0 0
257 1 1 0.5897 2.8949663565069486 8.667547539479363 10.102429224287631 0 0 0
582 1 1 0.5897 5.143726429672192 10.816035464277508 8.584539181410815 0 0 0
147 1 1 0.5897 7.743696205901461 6.953938947100119 7.48386152575049 0 0 0
11 1 1 0.5897 2.3909839238248103 6.797085180910675 6.353531344518132 0 0 0
649 1 2 -1.1794 3.1523204151888935 6.944917598371214 9.500555524977155 0 0 0
526 1 2 -1.1794 7.607799782556281 6.968267868397912 9.270961372406783 0 0 0
182 1 1 0.5897 0.19101910066085281 6.168091939169191 6.072666124408486 1 0 0
14 1 1 0.5897 0.7295725140674901 11.675891618461716 9.941427971855802 0 0 0
828 1 1 0.5897 7.578684960570511 6.991178827068567 14.94210682124203 0 0 0
261 1 1 0.5897 0.8114486435228471 10.991428068037154 14.85778596683066 0 0 0
332 1 1 0.5897 3.08138913464196 7.976046162305363 13.79011942491296 0 0 0
797 1 1 0.5897 2.9260003936382772 9.578347592766695 12.303917031978846 0 0 0
796 1 2 -1.1794 2.9985882993172805 9.716029528061087 13.248450819674161 0 0 0
798 1 1 0.5897 2.243753213268322 10.261444367681813 13.470183949599113 0 0 0
722 1 1 0.5897 4.468784497067709 10.463675489371727 13.808426743785219 0 0 0
259 1 2 -1.1794 0.7374974017754649 11.056389035016814 13.905587503523437 0 0 0
721 1 2 -1.1794 5.310386434855789 10.87584381617315 14.004054761653643 0 0 0
723 1 1 0.5897 5.341731753518425 10.915546450191139 14.95998985154989 0 0 0
331 1 2 -1.1794 3.0370154746245728 7.064590732151696 14.079217076563383 0 0 0
225 1 1 0.5897 2.9813902064956204 7.047063450625817 15.967746159134595 0 0 0
826 1 2 -1.1794 7.5948784409786265 7.103827744684067 13.991623012799886 0 0 0
475 1 2 -1.1794 7.651959382240164 9.711267467696828 13.059977012053714 0 0 0
476 1 1 0.5897 6.863831051547183 10.135414729417608 13.399673035268748 0 0 0
477 1 1 0.5897 7.653888224987637 8.845761558181204 13.468880750326305 0 0 0
827 1 1 0.5897 6.780765567164806 6.701696145969894 13.68837559162649 0 0 0
333 1 1 0.5897 3.8244302022404035 6.659018594623535 13.715997762049271 0 0 0
366 1 1 0.5897 1.5336249670478497 6.299583096985732 13.257258887796658 0 0 0
821 1 1 0.5897 7.334542054250715 9.581105400316757 11.318177866418486 0 0 0
851 1 1 0.5897 9.03574599008369 6.150176583377114 13.440429617797058 0 0 0
104 1 1 0.5897 9.034654370130678 10.626210662278284 13.66298523283193 0 0 0
711 1 1 0.5897 8.891469844480342 6.137786662682047 17.41258889909084 0 0 0
142 1 2 -1.1794 5.399168620263021 6.001016762926939 20.59154389644576 0 0 0
287 1 1 0.5897 8.93310870111236 10.676441932709874 21.112216541956066 0 0 0
572 1 1 0.5897 1.5625728939837296 6.193556273725423 17.52041256715085 0 0 0
462 1 1 0.5897 8.91717574688992 6.087132699163577 20.948814687957906 0 0 0
522 1 1 0.5897 7.57983807035319 7.790425640899798 16.946615977552625 0 0 0
445 1 2 -1.1794 0.9477588745421323 10.926362265490278 16.69608007755535 0 0 0
679 1 2 -1.1794 5.605223708790494 10.92653533580034 16.713311400309415 0 0 0
246 1 1 0.5897 9.06007893237227 10.469108815772906 17.16460204463021 0 0 0
647 1 1 0.5897 1.4433159897982812 6.134407791327155 20.75194896358776 0 0 0
520 1 2 -1.1794 7.492549590510812 6.877131769525672 16.67353596288548 0 0 0
161 1 1 0.5897 6.942019967516745 6.83124741362485 21.17647202996627 0 0 0
223 1 2 -1.1794 3.0032711000466827 7.075028042616822 16.924359980916392 0 0 0
626 1 1 0.5897 3.129803158454315 9.676118304032565 18.535436843671786 0 0 0
394 1 2 -1.1794 0.8145926796545302 10.862087633821847 21.205619516635146 0 0 0
690 1 1 0.5897 2.204846955956568 10.075206102022463 20.58804308645463 0 0 0
7 1 2 -1.1794 7.7020366712950965 9.4782663894661 17.695333784155277 0 0 0
361 1 2 -1.1794 5.157943499294648 10.99334637207388 21.202589086142986 0 0 0
5 1 1 0.5897 3.772070849310196 6.709385110298548 21.003501551025963 0 0 0
688 1 2 -1.1794 2.964909156930765 9.607268400211728 20.241965194767655 0 0 0
224 1 1 0.5897 3.059205413828492 8.00689163030179 17.136008317784444 0 0 0
139 1 2 -1.1794 7.496214357425024 9.857171918344315 20.4972891090359 0 0 0
6 1 1 0.5897 2.9790299211006497 7.992625750277007 20.874798333913617 0 0 0
625 1 2 -1.1794 3.2123429446837215 9.736690093195087 17.583650961728743 0 0 0
8 1 1 0.5897 7.521608903146516 9.440809123288643 18.634705685856755 0 0 0
9 1 1 0.5897 6.979884338680179 9.991380723838692 17.332527898831295 0 0 0
141 1 1 0.5897 7.449293356891895 8.980514378865587 20.87882832259769 0 0 0
627 1 1 0.5897 2.382624906914454 10.116707479742049 17.294499057510482 0 0 0
4 1 2 -1.1794 2.9219493516855555 7.0979383372625815 21.210321931067053 0 0 0
279 1 1 0.5897 4.4732877140268865 6.218225213985274 17.546583953801413 0 0 0
140 1 1 0.5897 6.66046439979462 10.26378616342035 20.72671061033339 0 0 0
680 1 1 0.5897 4.756758684872174 10.614366278625154 17.02813497348604 0 0 0
521 1 1 0.5897 6.701853339605005 6.568735703433683 17.116409455847364 0 0 0
689 1 1 0.5897 3.7189433791469364 10.080189652846007 20.59439296645653 0 0 0
160 1 2 -1.1794 7.7420027347607565 7.253694919879989 21.489526885712582 0 0 0
447 1 1 0.5897 0.19875538224759026 10.524084053006549 17.13607556577937 1 0 0
446 1 1 0.5897 0.9978463109558393 11.808076361161723 17.06536794654056 0 0 0
200 1 1 0.5897 5.266761424171408 13.420353306206005 4.922299911196469 0 0 0
173 1 1 0.5897 4.41759569050015 14.016794976680133 2.787063284418502 0 0 0
172 1 2 -1.1794 5.178344638920863 13.56918741766207 3.1576569664239593 0 0 0
293 1 1 0.5897 2.9376414201761785 16.618018796146515 2.586719642458581 0 0 0
558 1 1 0.5897 3.0933733367878036 14.770786940545968 1.1953920323144678 0 0 0
556 1 2 -1.1794 3.0712217036213296 14.918717969956822 2.140904556482374 0 0 0
557 1 1 0.5897 2.292421375182689 14.448684537177988 2.439197921174709 0 0 0
478 1 2 -1.1794 7.298933228428467 14.844453983244156 2.0066479842185125 0 0 0
174 1 1 0.5897 5.2146054323145785 12.732995804432164 2.6931366872268834 0 0 0
479 1 1 0.5897 8.061345902317498 14.430380035669756 2.4112483194293177 0 0 0
449 1 1 0.5897 7.354917931458824 16.624645083636914 2.6261107445614695 0 0 0
480 1 1 0.5897 6.547471661875512 14.43680331102506 2.437408987458019 0 0 0
373 1 2 -1.1794 0.8866307144983041 13.471523063977497 3.010137933639699 0 0 0
374 1 1 0.5897 0.7169598518073902 13.442406323733767 3.9518070848499285 0 0 0
294 1 1 0.5897 2.8540334080858005 17.5190882434298 3.8005056009738483 0 0 0
448 1 2 -1.1794 7.45897423028997 17.53302442140575 2.909514406691757 0 0 0
292 1 2 -1.1794 2.9217350261812545 17.539380844048544 2.8458439752993807 0 0 0
317 1 1 0.5897 7.436255556077657 14.747499292751462 0.22732138654891496 0 0 0
308 1 1 0.5897 7.205417595711537 17.486846327661297 4.677899939299028 0 0 0
238 1 2 -1.1794 2.728423555983975 17.413267960108897 5.614752252553612 0 0 0
655 1 2 -1.1794 0.7064890812069649 13.314079179810143 5.765648904811199 0 0 0
186 1 1 0.5897 7.42993914772297 16.383214226458364 9.838946620732589 0 0 0
518 1 1 0.5897 7.44020069515202 15.797202475116531 6.180512320305026 0 0 0
377 1 1 0.5897 6.819915374394635 14.284079389400294 9.570339205986349 0 0 0
199 1 2 -1.1794 5.2310407787128055 13.39948058881936 5.878678346285942 0 0 0
16 1 2 -1.1794 2.9395681665437263 14.812437802263604 6.546000084648423 0 0 0
382 1 2 -1.1794 3.0464210856734364 17.250660273575804 10.526543230767217 0 0 0
307 1 2 -1.1794 7.104153978479784 17.486572073022607 5.62980974459415 0 0 0
239 1 1 0.5897 2.8461994548444434 16.52018527749067 5.938540682787436 0 0 0
656 1 1 0.5897 1.4686915106037295 13.821455613702556 6.045015524072595 0 0 0
454 1 2 -1.1794 5.354294968897377 13.474487607177378 10.267180964288977 0 0 0
766 1 2 -1.1794 0.8826029305472683 13.488321585465345 10.327552717030237 0 0 0
384 1 1 0.5897 2.964486244478957 16.412874256319938 10.070789737654044 0 0 0
378 1 1 0.5897 7.5640925498978016 14.839212305864145 8.374379923924012 0 0 0
376 1 2 -1.1794 7.655250379647243 14.674487884750855 9.312958569629657 0 0 0
456 1 1 0.5897 5.261634922774243 12.565473113327071 9.981865828940064 0 0 0
811 1 2 -1.1794 3.141725719519421 14.724827513368322 9.289322097576827 0 0 0
517 1 2 -1.1794 7.464351074613326 14.936147773009605 6.598011103035515 0 0 0
768 1 1 0.5897 0.17150464182426362 13.989496724484612 9.928080709423313 0 0 0
812 1 1 0.5897 3.941363337698825 14.28749921676806 9.582175342711778 0 0 0
201 1 1 0.5897 5.999347476373699 13.897325569392324 6.158465803090641 0 0 0
17 1 1 0.5897 3.0410434955465884 14.8528646387784 7.497021793697476 0 0 0
519 1 1 0.5897 8.261800897929461 14.528041214787045 6.260430519382283 0 0 0
813 1 1 0.5897 2.433592198437479 14.238430763905798 9.71168006926457 0 0 0
18 1 1 0.5897 3.6838797809523505 14.28979499160086 6.247226541333401 0 0 0
184 1 2 -1.1794 7.345151429043961 17.272905089772827 10.181824986497766 0 0 0
429 1 1 0.5897 5.892727751878361 13.863732897399212 13.342150778501173 0 0 0
232 1 2 -1.1794 2.792600979993009 14.730008788836992 13.859217767390312 0 0 0
234 1 1 0.5897 2.951732496502509 14.82347211845927 14.798539209711702 0 0 0
606 1 1 0.5897 2.8619013062356102 16.55752953142271 13.550361157700777 0 0 0
427 1 2 -1.1794 5.135485523478982 13.38995003857465 12.997851573145345 0 0 0
233 1 1 0.5897 3.5660724673763187 14.272605580772854 13.529124862696086 0 0 0
639 1 1 0.5897 1.1932937163074164 14.031593592044638 13.416119987087267 0 0 0
428 1 1 0.5897 5.207106483723556 12.514365947633479 13.378024073848138 0 0 0
297 1 1 0.5897 8.17340203756686 14.445981116095368 13.415855161242815 0 0 0
296 1 1 0.5897 7.419081592028361 14.874716072571989 14.656620016347732 0 0 0
295 1 2 -1.1794 7.388317934812699 14.91393391807101 13.700644838456784 0 0 0
270 1 1 0.5897 7.303380724141863 16.570233362249546 13.170819253661163 0 0 0
638 1 1 0.5897 0.4853390572466125 12.694284401780507 13.365602593034229 0 0 0
637 1 2 -1.1794 0.41992743357203277 13.597571632179047 13.055617019963604 0 0 0
455 1 1 0.5897 5.262258525925756 13.437769774481017 11.219316831820512 0 0 0
767 1 1 0.5897 0.7177758391331738 13.546254727919985 11.26874895262662 0 0 0
268 1 2 -1.1794 7.303681913323901 17.4999616189129 12.943006401116623 0 0 0
605 1 1 0.5897 2.9967873242199254 17.412655846356913 12.30828912985668 0 0 0
604 1 2 -1.1794 2.9046528978935657 17.468494227515052 13.25948013439959 0 0 0
269 1 1 0.5897 7.349170709234797 17.512782840503085 11.986898401359356 0 0 0
49 1 2 -1.1794 7.578903879946246 14.817785610108224 16.407955309582682 0 0 0
823 1 2 -1.1794 3.093255128776225 14.868061650673072 16.581586723702856 0 0 0
664 1 2 -1.1794 3.26404356760814 14.705065662627279 21.339314345006443 0 0 0
584 1 1 0.5897 2.9669610727702933 16.530893458194143 17.233121722873342 0 0 0
318 1 1 0.5897 7.5588558474509675 15.642744628926037 20.968072233070675 0 0 0
51 1 1 0.5897 8.334417172144756 14.351698190440768 16.76627058577518 0 0 0
715 1 2 -1.1794 2.9648408052355757 17.218636866389595 20.40658591530382 0 0 0
716 1 1 0.5897 2.977187793508204 17.32447196487245 19.455261568972695 0 0 0
50 1 1 0.5897 7.578526427322835 15.659913716144828 16.863071725102266 0 0 0
53 1 1 0.5897 1.0533125986121115 13.471321382994208 18.757010463367912 0 0 0
316 1 2 -1.1794 7.534436031125991 14.722636897410949 21.230944891015753 0 0 0
124 1 2 -1.1794 5.332152010945365 13.525645647127808 17.35843451337981 0 0 0
117 1 1 0.5897 9.028826148697917 14.018565580444951 20.5686407429167 0 0 0
824 1 1 0.5897 3.8686884135851143 14.368130406119203 16.836925109385316 0 0 0
159 1 1 0.5897 7.535084257271366 17.26144864846274 19.640996236950933 0 0 0
157 1 2 -1.1794 7.393281086124184 17.402173983857182 20.57719303652124 0 0 0
684 1 1 0.5897 4.650535419604022 13.900815867288536 20.54202286754299 0 0 0
125 1 1 0.5897 5.318735133608044 13.584140183905983 18.31382656982183 0 0 0
682 1 2 -1.1794 5.394291238298728 13.53042437125479 20.06655536905881 0 0 0
52 1 2 -1.1794 1.0374408484110962 13.499634052028552 17.800288539032987 0 0 0
665 1 1 0.5897 2.501217851541962 14.257749006286822 20.972644970159035 0 0 0
451 1 2 -1.1794 0.9277712145724778 13.453719550647781 20.45631863528127 0 0 0
683 1 1 0.5897 6.158166762183607 13.980820652378563 20.427200924963604 0 0 0
452 1 1 0.5897 0.8614971504451965 12.516146422739977 20.63759927266602 0 0 0
825 1 1 0.5897 2.3659959479657826 14.421052285221505 17.014828420742855 0 0 0
126 1 1 0.5897 6.1463636927372765 13.959431065838924 17.1028292348612 0 0 0
610 1 2 -1.1794 7.375185700060099 17.2080910755096 17.84087385835482 0 0 0
666 1 1 0.5897 3.1749704717200604 15.611625154553984 21.045161143008965 0 0 0
54 1 1 0.5897 0.20244293109277578 13.916100134350897 17.586320812987513 0 0 0
583 1 2 -1.1794 2.920526174098794 17.367424845544882 17.69612158313207 0 0 0
681 1 1 0.5897 5.6762355476306565 11.816828071865578 17.057751393641336 0 0 0
362 1 1 0.5897 5.239690342387109 11.879996621201702 20.851206884949796 0 0 0
267 1 1 0.5897 6.025400084155145 21.700454606906156 2.8454179047103616 0 0 0
696 1 1 0.5897 1.5815338955146871 21.78416885369316 2.6389682753779486 0 0 0
266 1 1 0.5897 4.513737570894295 21.649258248433746 2.7761486991460265 0 0 0
265 1 2 -1.1794 5.2664405559321334 21.238381542364216 3.201645613989928 0 0 0
228 1 1 0.5897 5.21744868897781 19.568893914433936 2.5224043210865714 0 0 0
343 1 2 -1.1794 0.8291317346596921 18.949275052233283 2.001874557570357 0 0 0
249 1 1 0.5897 5.151370014645888 21.490507421631477 4.969937007017626 0 0 0
226 1 2 -1.1794 5.224165810337666 18.739510875358455 2.0444945173476743 0 0 0
187 1 2 -1.1794 3.0982615891563543 22.501046203180202 2.1557919724144665 0 0 0
818 1 1 0.5897 8.371605841537345 22.102081959037115 2.691952960943713 0 0 0
189 1 1 0.5897 3.072536976200516 22.658851320258037 1.211965693630505 0 0 0
344 1 1 0.5897 1.5948414825223909 18.529988681229902 2.394719279924051 0 0 0
817 1 2 -1.1794 7.586163782032779 22.517125273087707 2.335223280641446 0 0 0
345 1 1 0.5897 0.9792082958415018 18.88732645049965 1.0584545675043682 0 0 0
413 1 1 0.5897 0.5396220179939466 21.236503214619844 4.773830265395379 0 0 0
695 1 1 0.5897 0.716199655461914 20.54209342586364 2.664679480960605 0 0 0
227 1 1 0.5897 4.484702803092685 18.2493233185194 2.40412937850641 0 0 0
694 1 2 -1.1794 0.7715660547702275 21.433334712931313 3.009535714548463 0 0 0
498 1 1 0.5897 7.547316738800643 22.563083666550895 0.5544122841331622 0 0 0
450 1 1 0.5897 6.680732384718557 17.979280854902875 2.5754092870348604 0 0 0
321 1 1 0.5897 9.094635622498249 18.26325079698963 2.3353744292180085 0 0 0
602 1 1 0.5897 5.247687442412424 18.8566378968414 0.247407350339433 0 0 0
819 1 1 0.5897 7.591726014294291 23.399681868086084 2.7058494571569667 0 -1 0
188 1 1 0.5897 3.1930489187523863 23.371677269916805 2.542212224660801 0 0 0
32 1 1 0.5897 8.191824480696658 22.14650201531483 6.555168427616916 0 0 0
700 1 2 -1.1794 2.79579387451631 22.55459683320553 6.763290318010962 0 0 0
86 1 1 0.5897 7.278303837047863 22.62215239927845 8.68746106724547 0 0 0
405 1 1 0.5897 0.6988589313000818 19.574850321865853 9.830187096583414 0 0 0
309 1 1 0.5897 7.890643232474338 17.924923074288266 5.954953085248947 0 0 0
386 1 1 0.5897 5.725390364493967 18.420474826363048 6.2585051374021035 0 0 0
387 1 1 0.5897 5.008746822798867 19.750440661782555 6.357345139134299 0 0 0
340 1 2 -1.1794 0.620019079332359 18.68701313755686 6.745447994460204 0 0 0
33 1 1 0.5897 6.6853412674140085 22.292588468011346 6.513911642592711 0 0 0
404 1 1 0.5897 1.5131642306683253 18.311380939540037 10.01111946347413 0 0 0
247 1 2 -1.1794 5.154817962529676 21.57032762958284 5.923871168946168 0 0 0
38 1 1 0.5897 2.1188221613833447 22.124223567593837 9.785010585656353 0 0 0
185 1 1 0.5897 8.110434192350265 17.735648738976018 9.840293029487224 0 0 0
240 1 1 0.5897 3.5014830212122727 17.884939557278727 5.925129750270613 0 0 0
85 1 2 -1.1794 7.314252045498985 22.523419953354775 9.638949324583583 0 0 0
37 1 2 -1.1794 2.8761077415229286 22.59880155948816 9.441908595866126 0 0 0
555 1 1 0.5897 5.051875152144195 20.278863828742857 10.081106654685142 0 0 0
341 1 1 0.5897 1.3712336530963238 18.194514322840845 6.41444304433967 0 0 0
100 1 2 -1.1794 5.128258846222093 18.572106430434445 9.343274088134004 0 0 0
554 1 1 0.5897 5.741223874869836 21.62555269135239 10.139155360177348 0 0 0
412 1 2 -1.1794 0.49711714556358605 21.206094654454645 5.729676198295173 0 0 0
553 1 2 -1.1794 4.949395975554462 21.16762545740346 10.42154995660679 0 0 0
403 1 2 -1.1794 0.747881096172775 18.65978230282485 9.553519440859919 0 0 0
702 1 1 0.5897 1.9909819145961098 22.148398409627795 6.441231853243813 0 0 0
31 1 2 -1.1794 7.474324762736653 22.68720537020114 6.885692403245631 0 0 0
39 1 1 0.5897 3.63186389357929 22.09148822800975 9.738369702717891 0 0 0
414 1 1 0.5897 0.5113751416179716 20.27258295573001 5.940972680926719 0 0 0
102 1 1 0.5897 5.2091313992554795 18.624472952359156 8.390857945717965 0 0 0
87 1 1 0.5897 8.112069199688456 22.01878257280569 9.797908421263104 0 0 0
101 1 1 0.5897 5.900987046409879 18.081182610124365 9.62311464721551 0 0 0
248 1 1 0.5897 4.310556294994511 21.969532304506572 6.134361675256619 0 0 0
383 1 1 0.5897 3.8472608409756703 17.638583968976597 10.173537276170787 0 0 0
342 1 1 0.5897 0.7340061837203319 18.68853421915356 7.695916547860248 0 0 0
385 1 2 -1.1794 4.903132631062593 18.817862356142726 6.545597268425241 0 0 0
94 1 2 -1.1794 0.7764513814213035 21.22340936287899 10.450183381843498 0 0 0
701 1 1 0.5897 2.741086094541648 22.47357879241897 7.715557983449351 0 0 0
88 1 2 -1.1794 4.944420667763014 21.361450658565893 13.11804632983059 0 0 0
381 1 1 0.5897 1.317198410955753 21.753687407792995 13.556490631225975 0 0 0
90 1 1 0.5897 5.125338751765985 20.487879055395773 13.465106849712548 0 0 0
763 1 2 -1.1794 5.182721392967087 18.801189491154737 14.126279825435908 0 0 0
738 1 1 0.5897 3.5446149962801767 22.0411151689612 13.975388378553461 0 0 0
89 1 1 0.5897 4.904961265536271 21.239405141553455 12.169405557235336 0 0 0
736 1 2 -1.1794 2.7841565796931196 22.505630532403224 14.325183250402223 0 0 0
789 1 1 0.5897 6.507076373011923 22.14188475616438 13.648673200907764 0 0 0
765 1 1 0.5897 5.9141469644526135 18.37234993087509 13.681826191955567 0 0 0
787 1 2 -1.1794 7.317890474707971 22.632922604900877 13.78245474449969 0 0 0