LAMMPS data file via write_data, version 30 Jul 2021, timestep = 17250000

864 atoms
2 atom types
576 bonds
1 bond types
288 angles
1 angle types

0.7034439256479228 17.50412847434594 xlo xhi
1.9200952970606426 21.709082502931075 ylo yhi
0.8581999462282752 21.35499585377155 zlo zhi

Masses

1 1.00794
2 15.9994

Pair Coeffs # lj/cut/tip4p/long/omp

1 0 0
2 0.21084 3.1668

Bond Coeffs # harmonic/omp

1 450 0.9572

Angle Coeffs # harmonic/omp

1 55 104.52

Atoms # full

66 1 1 0.5897 2.63202926464295 4.985024159662461 5.093257333827885 1 7 -3
64 1 2 -1.1794 2.4583429535908348 5.116142700231073 4.1611039576444835 1 7 -3
65 1 1 0.5897 2.96104989819047 4.428584998783301 3.72427935833539 1 7 -3
41 1 1 0.5897 4.065183914708328 2.5008022083743917 4.361768187822835 -1 -5 3
335 1 1 0.5897 2.7746862256159677 6.101853391330987 2.8415763569522206 5 -1 3
334 1 2 -1.1794 2.731747981349177 6.5591074217228735 2.0017364808928453 5 -1 3
40 1 2 -1.1794 4.017919175427274 3.070705929838704 3.594151906012042 -1 -5 3
185 1 1 0.5897 0.9661796275952705 3.149655237912831 4.385057821108077 -1 8 5
42 1 1 0.5897 3.9473572610518315 2.469354575609527 2.852764192108969 -1 -5 3
184 1 2 -1.1794 0.9649447828107177 2.1924256839692777 4.3880311959712195 -1 8 5
505 1 2 -1.1794 0.9975547559308662 4.811893431213484 0.8608931148160938 1 0 4
507 1 1 0.5897 1.645056846980379 5.42146224223835 1.2150637714355188 1 0 4
755 1 1 0.5897 2.601847049181875 2.089794234579223 5.573695208523365 -6 3 -10
186 1 1 0.5897 1.0623266321032627 1.949441075272496 3.467283138117719 -1 8 5
198 1 1 0.5897 1.459565764984582 4.272454234396145 9.870148189946224 -1 -2 3
197 1 1 0.5897 2.7281941162383703 4.253069187529981 10.696095980531233 -1 -2 3
638 1 1 0.5897 4.34614419488574 3.362166111409574 6.934387039142331 -11 2 1
187 1 2 -1.1794 1.7803303022451273 4.136819098184375 6.780234216014012 -9 7 2
639 1 1 0.5897 3.9231609275363324 3.598810023157451 8.368641252155044 -11 2 1
188 1 1 0.5897 1.3848881082780324 3.2679696021392166 6.850855380786057 -9 7 2
785 1 1 0.5897 2.324751127218059 6.121107793878796 10.167456854843339 7 7 6
196 1 2 -1.1794 2.413392363747879 4.29576215596315 9.793131112639726 -1 -2 3
637 1 2 -1.1794 4.368189244975666 4.017460828970749 7.631796950059917 -11 2 1
189 1 1 0.5897 2.581337818116228 4.078969756701155 7.3011454957961845 -9 7 2
653 1 1 0.5897 3.8114901722781354 5.839291326960078 7.16734776029996 -1 3 1
652 1 2 -1.1794 3.465584600522008 6.71766172690781 7.009017018310498 -1 3 1
357 1 1 0.5897 0.7863720410278817 5.713878548309701 6.5358587297139765 8 -5 7
47 1 1 0.5897 2.5594522046643533 3.8380518296423687 12.842613659893766 1 -3 -2
806 1 1 0.5897 3.9886948473670665 6.2311708161657124 12.57503936021373 4 -2 -5
732 1 1 0.5897 2.2728580266565754 3.304282206676241 15.99710864018229 1 4 -4
396 1 1 0.5897 1.4704513023347427 5.815498794102451 12.456468986846714 10 -1 3
84 1 1 0.5897 1.455414608385398 6.718492717452093 14.475786268139066 -5 -1 -6
48 1 1 0.5897 4.03471064238431 4.171375592199999 12.909624311402174 1 -3 -2
394 1 2 -1.1794 0.8492918079624532 6.395582072891982 12.896843215164854 10 -1 4
46 1 2 -1.1794 3.213987170050644 4.44771648954335 12.501805481745679 1 -3 -2
730 1 2 -1.1794 1.531218267347232 2.9824999500393092 15.48457041648438 1 4 -4
593 1 1 0.5897 4.4928507821067925 2.2576274446431674 11.733918097628202 -2 0 -2
534 1 1 0.5897 0.9613353746959703 2.603083554266052 11.713021040544794 -9 -2 -4
731 1 1 0.5897 1.1795162651878353 2.2571240458323336 16.000708300428364 1 4 -4
845 1 1 0.5897 4.8657747966116505 4.22594613001505 14.71164759499177 2 -3 4
92 1 1 0.5897 1.8664218184762484 4.852743517732909 18.696996327506263 3 -4 0
818 1 1 0.5897 2.8301927279736003 2.1979061058258367 18.883601514807097 8 1 3
817 1 2 -1.1794 2.392584337795901 2.9392120528384416 19.302204270254393 8 1 3
93 1 1 0.5897 1.701253214974791 6.209530380818349 18.045955487799862 3 -4 0
152 1 1 0.5897 3.3868150430975534 4.597170579195713 17.018896767950565 6 6 -7
91 1 2 -1.1794 2.33947032516719 5.510157968789791 18.18680588581695 3 -4 0
78 1 1 0.5897 3.7941070579246894 5.412500876514919 19.288648458335157 3 -1 -4
77 1 1 0.5897 3.769025132296954 5.885530835047401 20.726578667233525 3 -1 -4
153 1 1 0.5897 4.4774624985530505 3.549973184080903 17.095403353552378 6 6 -6
151 1 2 -1.1794 3.8286627481421562 3.925108703090488 16.499898461687685 6 6 -6
819 1 1 0.5897 1.4597842453618595 2.7336008061334915 19.23997224983189 8 0 3
76 1 2 -1.1794 4.361152762389418 5.570975718430935 20.04338797704184 3 -1 -4
390 1 1 0.5897 3.042116428889501 2.411722685872886 21.071121347510704 7 9 4
85 1 2 -1.1794 2.2431875856392516 9.531766801715502 1.1885107579432228 -6 0 0
514 1 2 -1.1794 2.648809952134238 8.59265794857948 5.154800362124933 0 -12 1
352 1 2 -1.1794 1.5604392846169661 11.309583530147057 3.6033228747742054 1 3 -2
245 1 1 0.5897 4.051442114106942 7.743218311209235 2.634606004122624 -6 1 -4
516 1 1 0.5897 3.2724375396047933 8.609298436652274 4.428794961915076 0 -12 1
398 1 1 0.5897 4.504128141252471 10.188104233168014 1.676374258867541 5 1 -6
24 1 1 0.5897 1.3528060711961105 7.837132555474076 4.210910813032852 -1 1 3
515 1 1 0.5897 2.930771492335478 7.8555667889446354 5.696537308979462 0 -12 1
354 1 1 0.5897 2.0312298293231326 10.719198536601736 3.015019248343075 1 3 -2
86 1 1 0.5897 1.4195144579835193 9.072297608291567 1.0250897841977018 -6 0 0
336 1 1 0.5897 1.8798796398740603 6.995631106289913 2.00942771911547 5 -1 3
244 1 2 -1.1794 4.532371279701627 8.469991674184797 3.0305631733273035 -6 1 -4
212 1 1 0.5897 4.576138449490138 11.329027960261508 5.219518749755373 9 5 6
784 1 2 -1.1794 2.2734440680622514 7.076949095485568 10.16939518869996 7 7 6
113 1 1 0.5897 2.031834959850846 9.655688894723305 8.57112070350987 1 -3 1
114 1 1 0.5897 2.106617872660883 10.042381253532547 10.032908908042586 1 -3 1
654 1 1 0.5897 3.915651965268251 7.271431841659098 7.647008820340946 -1 3 1
570 1 1 0.5897 3.7435056629602883 8.026755319200287 9.344975141705604 2 1 -1
786 1 1 0.5897 1.6457496780416756 7.28500417586846 9.477315824556864 7 7 6
804 1 1 0.5897 3.6894335516121743 10.394460304450426 7.606352138540813 6 -4 -4
112 1 2 -1.1794 2.325726195052073 10.354909843361327 9.15506978545861 1 -3 1
802 1 2 -1.1794 3.7676357443728565 10.496273103541126 6.6577872109629075 6 -4 -4
568 1 2 -1.1794 4.5527378908907234 8.170903958524448 8.85444239674269 2 1 -1
803 1 1 0.5897 3.011801660053614 10.028155663645085 6.303054520395992 6 -4 -4
597 1 1 0.5897 1.7798446887547805 11.537529115553788 13.998501986119788 -4 -10 -1
749 1 1 0.5897 2.309607275769143 8.51708069467525 11.73431054987381 7 4 0
748 1 2 -1.1794 2.001361741641979 9.423331829559448 11.731019806775214 7 4 0
805 1 2 -1.1794 4.045078773190562 7.070365558778022 13.032058595053421 4 -2 -5
750 1 1 0.5897 2.686540642866176 9.911515979830776 12.187595433714298 7 4 0
849 1 1 0.5897 2.223911035797536 8.912472426715608 14.640665023937474 3 4 5
847 1 2 -1.1794 2.482532638357108 9.82424548754955 14.50633140298901 3 4 5
848 1 1 0.5897 3.4324435255082135 9.82421487185005 14.624675975873428 3 4 5
718 1 2 -1.1794 4.132500055909837 10.986708559796005 12.44881367713054 3 3 2
719 1 1 0.5897 4.778206527960077 10.785775721595853 13.126275893484086 3 3 2
720 1 1 0.5897 4.574504228600198 10.77665987263875 11.62615217216905 3 3 2
82 1 2 -1.1794 1.7032171700727319 6.927368240519863 15.37647665624229 -5 -1 -6
864 1 1 0.5897 4.74223854110885 7.187347423683928 14.692726383005294 8 1 2
83 1 1 0.5897 2.6593259310058435 6.881422865669471 15.379147546491108 -5 -1 -6
862 1 2 -1.1794 4.789305329423764 7.160375036679577 15.648415744289588 8 1 2
807 1 1 0.5897 4.846449375998323 7.472706262091917 12.697067245097362 4 -2 -5
591 1 1 0.5897 1.9129213066691488 11.113248148331131 18.492990787037037 4 9 4
301 1 2 -1.1794 1.2623789885765304 11.571104410434033 20.163423924604153 3 3 1
424 1 2 -1.1794 3.4810422870657303 8.533623666560018 17.584214661724495 4 -5 -2
445 1 2 -1.1794 4.683406208268099 8.720252108363859 20.263839246246967 7 -7 -2
446 1 1 0.5897 3.9051672995043667 8.64557947291194 20.816139632128507 7 -7 -2
793 1 2 -1.1794 0.8858129073083172 8.299845304202133 18.51609505916435 -1 -1 2
425 1 1 0.5897 3.8978304816923397 8.538824227163923 18.44593760324952 4 -5 -2
590 1 1 0.5897 2.502421939146408 10.05003371595298 17.590743519358956 4 9 4
426 1 1 0.5897 4.093414793798864 8.056322932991762 17.02432521394782 4 -6 -2
794 1 1 0.5897 1.7435477382555196 8.413935948854455 18.106788388659133 -1 -1 2
589 1 2 -1.1794 2.217425060257499 10.963815058840442 17.597887155003303 4 9 4
690 1 1 0.5897 3.808259480254513 11.493647892930966 17.120871577947746 0 0 1
87 1 1 0.5897 2.1933802350324783 10.315624797420318 21.138173554661066 -6 0 -1
269 1 1 0.5897 4.3148750435253485 14.578526628987165 3.151664103721046 3 4 7
213 1 1 0.5897 4.350211919880174 12.282102202207373 4.0651473458614715 9 5 6
520 1 2 -1.1794 4.117212283668092 16.479442627883657 3.0449069834503395 -4 0 0
628 1 2 -1.1794 1.5014778035498657 14.370653925026371 4.082805239355833 -3 0 -1
629 1 1 0.5897 1.8790700694872458 14.068565331014845 4.908893897206872 -3 0 -1
268 1 2 -1.1794 3.9823795155449506 13.71362531438431 2.9114842815550763 3 4 7
270 1 1 0.5897 3.074325939374558 13.712976300583476 3.214440073621449 3 4 7
753 1 1 0.5897 1.6702980513044159 16.16183518230498 3.2497143954053387 5 -2 1
353 1 1 0.5897 1.0873762951531167 11.902915102899794 3.0198410378105396 1 3 -2
521 1 1 0.5897 3.522490300040099 16.655150512877814 3.7740818767141078 -4 0 0
746 1 1 0.5897 4.156698313248961 12.628346649838655 0.8934160681027343 2 1 -9
182 1 1 0.5897 1.8853898128728246 13.150104492782956 8.35379993976618 0 1 -4
328 1 2 -1.1794 2.4009381993728427 13.615298627139424 6.507541464175051 3 5 -1
838 1 2 -1.1794 2.6047587998106874 15.86791439082018 10.301745378342051 -2 -2 0
95 1 1 0.5897 4.567400177626793 15.29850673152744 7.060200075937872 -5 -1 -8
327 1 1 0.5897 3.9216995551957834 13.517548700758603 8.909897151376041 0 -6 -2
181 1 2 -1.1794 1.96991248706138 13.063630463670549 9.303345563569932 -1 1 -4
325 1 2 -1.1794 4.769002819956747 13.155460968671125 8.650596836598819 0 -6 -2
94 1 2 -1.1794 3.9563841724024638 15.831627673823736 7.568830520139987 -6 -1 -8
840 1 1 0.5897 2.447835940763915 15.63118769512286 9.38763954238152 -2 -2 0
183 1 1 0.5897 2.063042369886192 12.122509232085697 9.451271373157132 -1 1 -4
839 1 1 0.5897 2.562813871067852 15.037145123331783 10.775396722153594 -2 -2 0
329 1 1 0.5897 2.7914176434737312 14.470259464889066 6.688808705042341 3 5 -1
330 1 1 0.5897 3.0946459914852777 12.98712135837837 6.708620705838124 3 5 -1
96 1 1 0.5897 4.515725025199939 16.422355834244904 8.073242232563413 -6 -1 -8
88 1 2 -1.1794 3.4174077663667783 13.621515713684 14.754611067089368 4 -6 9
595 1 2 -1.1794 1.2608679632702384 12.282317331589114 13.6947976460255 -4 -10 -1
824 1 1 0.5897 1.878417292557883 15.573333238550948 12.909475780286774 -3 6 5
614 1 1 0.5897 3.5952772027893456 12.639431001154664 11.915234013300434 -12 -4 1
596 1 1 0.5897 0.8779634651770765 12.648963701568677 14.491817447902182 -3 -10 -1
613 1 2 -1.1794 3.479600603357212 13.577267018475839 11.762108313618324 -12 -4 2
90 1 1 0.5897 2.6710160484945833 13.181919218810233 14.347282697878779 4 -6 9
633 1 1 0.5897 1.7839482368846362 16.375137551978824 15.931647045931951 6 4 2
89 1 1 0.5897 3.654587246860965 13.058549487804425 15.49154854528425 4 -6 9
615 1 1 0.5897 3.34315443280409 13.947748450896384 12.634145814413744 -12 -4 2
823 1 2 -1.1794 0.9461632320742072 15.362911641876266 12.963680751627233 -3 6 5
825 1 1 0.5897 0.8513810775492331 14.559507965762535 12.451939130587139 -3 6 5
631 1 2 -1.1794 1.1577508439707578 15.704616109608585 15.658637073327252 6 4 2
632 1 1 0.5897 1.1193803049074618 15.785884758509345 14.70564094571792 6 4 2
650 1 1 0.5897 1.3188917686834707 12.73726273097524 16.924431212823144 4 -4 2
747 1 1 0.5897 3.1261157861219715 13.536800716262164 20.754146178344012 2 1 -10
808 1 2 -1.1794 3.051053861503964 13.992949713136714 17.930030966402814 0 2 0
267 1 1 0.5897 2.050059654116046 15.314633265428755 18.591850254361127 -3 -4 1
809 1 1 0.5897 3.769244308026601 14.518104615553115 17.576912678084504 0 2 0
240 1 1 0.5897 1.2259307737650378 14.80101085619969 20.630666082244087 -6 -4 1
303 1 1 0.5897 1.1548064084781577 12.44829470940788 20.531158808790934 3 3 1
745 1 2 -1.1794 3.926954320687143 13.049068112432858 20.561671353090716 2 1 -10
810 1 1 0.5897 3.4612538281076906 13.166994777465844 18.186598269632412 0 2 0
265 1 2 -1.1794 1.5366915911709746 15.907500946038665 19.14071226318556 -3 -4 1
238 1 2 -1.1794 1.4715629645797041 14.126349916635593 21.26372010729681 -6 -4 1
688 1 2 -1.1794 4.62633752039646 11.899292869713824 16.83371710981933 0 0 1
651 1 1 0.5897 0.8109596327646088 14.004849692083807 16.270806748122887 4 -4 2
558 1 1 0.5897 2.2331608875913362 17.94133434191373 5.609658139256147 2 3 4
556 1 2 -1.1794 2.500296274897912 17.041109006897408 5.423951160290995 2 3 4
388 1 2 -1.1794 3.542773325030078 21.66979177079142 1.1938137144366086 7 8 5
236 1 1 0.5897 2.6579670244362177 20.220100598286542 1.9448770084878 -1 -9 -4
237 1 1 0.5897 2.5952063280105993 18.712997348718098 1.8157314692433268 -1 -9 -4
235 1 2 -1.1794 2.2075149599536905 19.448948575172423 2.2893710890061545 -1 -9 -4
571 1 2 -1.1794 4.1362305791574645 19.64107354956434 4.143587972276992 -5 1 -5
573 1 1 0.5897 3.357353090837507 19.39187392141107 3.6460607542559327 -5 1 -5
751 1 2 -1.1794 1.1749792719576597 16.818428189508726 2.7600171967542346 5 -2 1
756 1 1 0.5897 3.6453088619867033 20.785192478073583 5.488470514937198 -6 2 -10
828 1 1 0.5897 1.0281493253533425 19.386959116684913 0.9820822543751335 -5 -2 5
752 1 1 0.5897 0.8558842335214085 17.425572104512614 3.427719135250922 5 -2 1
572 1 1 0.5897 4.771157471323752 19.90667547836928 3.478321816379931 -5 1 -5
522 1 1 0.5897 3.7018785562594547 16.897225011297266 2.290446629047402 -4 0 0
769 1 2 -1.1794 1.6349620981045065 18.009487984439033 8.421540486903037 6 -7 3
342 1 1 0.5897 2.397550884077786 21.47843691977011 10.510733104427448 2 5 0
771 1 1 0.5897 1.1071206999732357 18.67940020842604 7.986935759403232 6 -7 3
341 1 1 0.5897 1.6034125566824455 20.212475333314927 10.268566455149223 2 5 0
340 1 2 -1.1794 1.5344579835872403 21.16672579878879 10.2384032409061 2 5 0
770 1 1 0.5897 1.156033685451178 17.193832009032786 8.274527370085277 6 -7 3
667 1 2 -1.1794 4.384557351316838 19.623195168221557 8.24231184391837 -11 -1 -1
668 1 1 0.5897 3.5281966874255573 19.254900115572156 8.459713430255121 -11 -1 -2
149 1 1 0.5897 4.097030168034477 16.989945615673307 9.829747783252449 -4 -1 5
150 1 1 0.5897 4.8352458195368575 18.235277568465776 9.386853860175115 -4 -1 5
684 1 1 0.5897 1.6940451600213868 18.112843252827126 10.591593155674897 4 -6 -7
557 1 1 0.5897 2.9868596899015 16.769729783654316 6.202379198637733 2 3 4
669 1 1 0.5897 4.664935070761014 19.13720181547491 7.466775606068158 -11 -1 -1
754 1 2 -1.1794 3.4009275305046747 21.56057574181186 5.993792251916159 -6 2 -10
474 1 1 0.5897 3.3373934468715913 17.283393862801496 13.774442601585395 6 3 1
480 1 1 0.5897 4.143664757849031 20.80811303104708 14.833821821068625 -8 6 -3
622 1 2 -1.1794 2.343656930735605 20.590322852161023 13.977890833090164 7 -5 2
683 1 1 0.5897 1.4352019331763886 18.322885680393405 12.0683668779336 4 -6 -7
624 1 1 0.5897 2.9038932970589344 20.911478190100595 13.271305147771828 7 -5 2
592 1 2 -1.1794 3.75478965761459 21.45693573080935 11.888196722863716 -2 -1 -2
682 1 2 -1.1794 1.9842990911436043 18.626405267248288 11.345425017840187 4 -6 -7
62 1 1 0.5897 3.4739670607407054 17.983111187434865 15.660440425045753 -10 -1 5
473 1 1 0.5897 3.249971652315729 17.398182067763535 12.267366560013965 6 3 1
623 1 1 0.5897 1.932305861196797 21.377565832412557 14.334676023088255 7 -5 2
63 1 1 0.5897 2.63125708766915 18.984173865442784 14.899053340949779 -10 -1 5
61 1 2 -1.1794 2.602128347521538 18.109056853674467 15.285837246108272 -10 -1 5
594 1 1 0.5897 4.147982539858868 20.58500729494711 11.925540855451809 -2 -1 -2
472 1 2 -1.1794 3.4938949967327577 16.792731160029827 12.967577690726504 6 3 1
761 1 1 0.5897 4.326984114590042 21.412071285929528 17.118151548703697 -1 -6 -4
440 1 1 0.5897 1.7453121575251205 18.013881686379428 18.614301774054358 1 -4 1
422 1 1 0.5897 3.2449598295160422 17.890418373353214 20.26108754865958 -2 -4 2
760 1 2 -1.1794 3.8582527313368495 20.937740311359953 17.80486471772372 -1 -6 -4
421 1 2 -1.1794 3.7868676017515948 17.815578288383712 21.046574008884445 -2 -4 2
389 1 1 0.5897 4.25990827367249 21.30683583402167 21.17073936813539 7 8 3
827 1 1 0.5897 1.266293632231124 19.69885690002797 20.01669532139344 -5 -2 4
439 1 2 -1.1794 2.1835152336544486 18.845775832111478 18.79382067087577 1 -4 1
441 1 1 0.5897 3.0058212518579803 18.793914175117813 18.306568368400665 1 -4 1
850 1 2 -1.1794 4.450807368355649 17.801807042394223 17.468467337964082 -1 2 -1
762 1 1 0.5897 4.521152589970809 20.767107370730855 18.474003150381353 -1 -6 -4
527 1 1 0.5897 1.5748226788327506 20.253289496661885 17.193190566930927 -1 -3 6
423 1 1 0.5897 4.3792305226018895 17.0869503059731 20.860935651654504 -2 -4 2
526 1 2 -1.1794 0.7360461929707908 20.560081120538612 16.848822753599272 -1 -3 6
852 1 1 0.5897 4.826485075714137 16.94969637929636 17.68989193999693 -1 2 -1
97 1 2 -1.1794 6.695008874193531 5.985286115617124 5.2599149894477915 6 -7 7
465 1 1 0.5897 6.694254130762578 4.040501220406892 5.855868133419991 5 8 4
221 1 1 0.5897 8.288837511507463 2.678524942942369 1.6146439038279112 -4 -2 5
463 1 2 -1.1794 6.489029922325848 3.1094675967482712 5.941498145805948 5 8 4
222 1 1 0.5897 8.52967743365248 4.140138891841007 1.9272512524990835 -4 -2 5
782 1 1 0.5897 6.562190262067607 4.8822726439622075 2.470235944516896 -6 0 -1
99 1 1 0.5897 6.108284500785703 5.843263978399837 4.517038616115316 6 -7 7
783 1 1 0.5897 5.164106414321159 4.572452770031825 2.961489711681256 -6 0 -1
220 1 2 -1.1794 7.855640019279428 3.4610723901116156 1.955641106675051 -4 -2 5
781 1 2 -1.1794 5.728455757605106 5.297059367142754 2.691808952267497 -6 0 -1
98 1 1 0.5897 6.476155087290817 6.862540205654865 5.574320238190938 6 -7 7
456 1 1 0.5897 9.00639961044862 6.1987492085182225 2.290933824217036 4 -3 0
735 1 1 0.5897 8.987751049711232 2.843152622339733 4.054255295301057 0 -1 -6
361 1 2 -1.1794 6.064774087072034 1.9587099336384617 8.57220135097636 5 -4 -1
273 1 1 0.5897 8.65914394663278 3.896391055832875 8.123468852593389 -3 -4 3
255 1 1 0.5897 6.178015039300604 5.883303370772021 10.741621096703792 -1 3 -3
464 1 1 0.5897 6.4400641488887915 2.96038006950359 6.885761759750024 5 8 4
712 1 2 -1.1794 6.987506575577357 4.938655025970236 8.104069096731289 -3 -2 3
254 1 1 0.5897 5.824069012166553 5.426343482525102 9.34238553654528 -1 3 -3
713 1 1 0.5897 6.1672969743738495 4.657077547404645 7.698815450342281 -3 -2 3
253 1 2 -1.1794 5.4315314267330725 5.710736006718144 10.167800257476468 -1 3 -3
707 1 1 0.5897 5.872641713768399 4.129149313548851 10.954521776914136 -2 -6 -11
714 1 1 0.5897 7.219144069157241 5.744448375092871 7.64222980007513 -3 -2 3
363 1 1 0.5897 5.9111774265344 2.2761153135743073 9.462100420353888 5 -4 -1
109 1 2 -1.1794 8.57356354207652 2.207229742243018 11.091280994209601 -1 3 -9
402 1 1 0.5897 8.803231727336254 6.7559042608384985 6.824044418664034 1 0 4
110 1 1 0.5897 8.739685803212843 2.557655545688792 10.21613366272147 -1 3 -9
609 1 1 0.5897 8.516277735440926 5.323893790528716 11.04087368163379 4 8 0
428 1 1 0.5897 7.7219954591114135 5.5342770987597545 15.3004501156606 0 5 -1
846 1 1 0.5897 6.260125808515465 4.112430274371966 14.132947856035297 2 -3 4
427 1 2 -1.1794 7.769656373620395 5.53387311456113 14.344393433595839 0 5 -1
359 1 1 0.5897 8.95684402523899 3.0150436963322074 16.138335358103873 4 1 0
844 1 2 -1.1794 5.390351692507712 3.7144757248814435 14.095609044228345 2 -3 4
706 1 2 -1.1794 5.824091317337568 3.203021022569656 11.191655385959274 -2 -6 -11
607 1 2 -1.1794 7.804726846271478 5.8266566141143565 11.43741739275549 4 8 0
358 1 2 -1.1794 8.43751236052128 2.233919074371777 15.94755973535868 4 1 0
608 1 1 0.5897 7.993502941323635 5.81064766111267 12.375697193395428 4 8 0
429 1 1 0.5897 8.426809536790747 4.869420407355413 14.137155218217101 0 5 -1
863 1 1 0.5897 5.540284396415625 6.597139201467594 15.835852425086511 8 1 2
479 1 1 0.5897 5.17921947612879 2.1212111085549563 14.904408014344067 -8 7 -3
708 1 1 0.5897 6.736625669835608 2.9160872749955518 11.226589921720478 -2 -6 -11
834 1 1 0.5897 7.3830521072824125 5.208414864461146 20.21574191663681 4 3 -1
815 1 1 0.5897 6.286364993249947 4.567652412957246 16.940852227046832 2 10 -4
833 1 1 0.5897 6.122236643638277 5.98839893580267 19.908949523410403 4 3 -1
814 1 2 -1.1794 6.652024576517443 5.448572514640576 16.860033999448465 2 10 -4
241 1 2 -1.1794 6.027848030223479 2.82400972598444 17.45690270469985 -2 -1 -1
666 1 1 0.5897 6.70231390182927 3.4253583016078935 21.081566747798636 0 -2 1
832 1 2 -1.1794 7.076981250252223 6.053185267609363 19.88553577687678 4 3 -1
664 1 2 -1.1794 6.207022655418371 3.263676738007421 20.278560180132978 0 -2 1
243 1 1 0.5897 6.154306362318522 2.9152735763549065 18.401326607479437 -2 -1 -1
665 1 1 0.5897 5.339568739132793 3.6283225203886706 20.454124899822304 0 -2 1
242 1 1 0.5897 6.8742996308583235 2.519439664667723 17.129744945061198 -2 -1 -1
122 1 1 0.5897 8.300978941316403 3.0769664614948145 19.319303998450078 1 0 4
816 1 1 0.5897 6.808128658847125 5.727330500647874 17.76235583016955 2 10 -4
121 1 2 -1.1794 8.99151544999284 3.7390857217832263 19.28735720303804 1 0 4
246 1 1 0.5897 5.379713946972297 8.467968452320049 2.5852631118587395 -6 1 -4
129 1 1 0.5897 7.649884780239574 9.294700066961951 4.701734035343549 2 -4 -2
135 1 1 0.5897 7.921288193311593 7.61285113515698 2.7958336474438474 -9 -1 4
127 1 2 -1.1794 8.14380095746017 10.08913035869119 4.904684750813276 2 -4 -2
397 1 2 -1.1794 5.150601741802713 10.877303965837632 1.829159987153505 5 1 -6
490 1 2 -1.1794 6.848061585710392 7.850823231765216 1.5037360394087704 -2 0 4
616 1 2 -1.1794 5.76062774918352 8.805305845421376 5.732719552195209 0 0 -2
128 1 1 0.5897 7.481949789300449 10.714126797448662 5.200756981464157 2 -4 -2
618 1 1 0.5897 5.4779092734961905 9.081590262121665 4.860926632356003 0 0 -2
211 1 2 -1.1794 4.985270324870582 11.659914557034549 4.4198859421947585 9 5 6
133 1 2 -1.1794 8.536754780560983 7.384393649914064 3.4924614674875922 -9 -1 4
399 1 1 0.5897 5.048249235075257 11.10158815457411 2.754084772813152 5 1 -6
492 1 1 0.5897 7.450191041359683 8.488676852327814 1.1205436684376588 -2 0 4
134 1 1 0.5897 8.00536610942148 6.920566424456974 4.13958082322482 -9 -1 4
491 1 1 0.5897 6.929723123480929 7.07791740992577 0.9449804857142752 -2 0 4
376 1 2 -1.1794 7.560235499250103 8.413905468864105 9.861968185841492 3 -2 0
401 1 1 0.5897 8.637953957363296 8.195620391241636 7.262135858503352 1 0 4
400 1 2 -1.1794 8.273116406847404 7.319586389732834 7.387538081342747 1 0 4
377 1 1 0.5897 7.7515995437692355 8.011346970601828 9.014846931275764 3 -2 0
569 1 1 0.5897 5.141937347763199 7.478879078052345 9.154776386360545 2 1 -1
251 1 1 0.5897 5.381032303061456 9.796276283884266 9.788223153261638 1 -5 -2
250 1 2 -1.1794 5.5183639993161115 10.712080797592282 10.030503741583285 1 -5 -2
252 1 1 0.5897 6.436655890025106 10.754633245256885 10.297331342233786 1 -5 -2
467 1 1 0.5897 8.658766573591748 10.029118872973427 6.549153799230769 4 -2 7
378 1 1 0.5897 8.419847054241812 8.570923267811496 10.25270122720808 3 -2 0
204 1 1 0.5897 6.4662463198502005 11.414068689669765 7.268517377412528 -9 -4 2
617 1 1 0.5897 5.0876897013781015 9.145589903430192 6.322314792148846 0 0 -2
411 1 1 0.5897 5.456122112030036 9.033962873877027 15.21108284550562 7 4 -8
19 1 2 -1.1794 7.904187653884176 8.613755598677788 15.210621677551327 -3 2 0
20 1 1 0.5897 7.391469151299007 8.504597230903222 14.40967961073659 -3 2 -1
470 1 1 0.5897 7.256690564226443 7.963216045237819 11.9786396209175 2 -9 1
471 1 1 0.5897 6.57712341518302 9.14285007849817 12.640943145018653 2 -9 1
132 1 1 0.5897 8.874325285661872 10.786454613406526 13.84886138480609 1 4 2
469 1 2 -1.1794 6.730156561926922 8.203275245693094 12.741140116525024 2 -9 1
79 1 2 -1.1794 7.231309814503604 11.02872457434038 12.89374638923335 -5 1 -8
410 1 1 0.5897 5.123083782688333 10.396613496292424 15.780496181247907 7 4 -8
81 1 1 0.5897 6.749339775082016 11.709594611943778 13.363194329483779 -5 1 -8
21 1 1 0.5897 8.390658774715606 9.426965834299363 15.07520267910638 -3 2 0
80 1 1 0.5897 7.259290566533839 11.335945371700477 11.987582179380896 -5 1 -8
409 1 2 -1.1794 5.144602156258752 9.903624749711792 14.960277262299165 7 4 -8
318 1 1 0.5897 7.330148903797006 8.050967589537496 17.32810988102375 -6 -5 -2
404 1 1 0.5897 8.446712563912659 10.702476717040977 21.139953508857616 5 1 2
317 1 1 0.5897 7.074544276139992 7.511910141191192 18.7195275285413 -6 -5 -3
314 1 1 0.5897 6.528849542411089 10.120457353248407 18.429350701750174 -3 -3 -5
313 1 2 -1.1794 6.097160513368778 10.882929994533647 18.814759669783776 -3 -3 -5
315 1 1 0.5897 5.385015782054375 10.516151934830408 19.338770357578817 -3 -3 -5
316 1 2 -1.1794 6.827714497323921 8.22039344863768 18.12506212807179 -6 -5 -2
403 1 2 -1.1794 8.534097958787163 9.761154653266239 21.29015651380758 5 1 2
701 1 1 0.5897 7.1067702119169045 11.77835575218808 20.065123747498728 2 2 1
689 1 1 0.5897 5.2573338239165786 11.677889088687223 17.518610455013352 0 0 1
405 1 1 0.5897 8.879019196840568 9.417606463552378 20.465925364324818 5 1 2
447 1 1 0.5897 5.415576951519144 8.550594328722827 20.856668996688217 8 -7 -2
702 1 1 0.5897 6.789061740585798 12.14182402831821 1.003220018938892 2 2 2
477 1 1 0.5897 5.968689295389348 14.732557181008344 5.449214505569109 1 -2 1
475 1 2 -1.1794 5.20405009268243 14.294016146543907 5.822406096119711 1 -2 1
647 1 1 0.5897 7.903964948621019 15.408595745994669 5.315120952134037 -7 4 -6
648 1 1 0.5897 7.112019689617304 16.57321608340343 4.759756050878719 -7 4 -6
598 1 2 -1.1794 7.3975345333918865 13.097150417930331 3.448954521789584 -3 -7 -5
600 1 1 0.5897 6.72456959150459 12.576920251381512 3.8879750596438085 -3 -7 -5
599 1 1 0.5897 7.226704595560273 13.996312032413107 3.729322320918993 -3 -7 -5
646 1 2 -1.1794 7.210864852220522 15.62361400344787 4.690914367860317 -7 4 -6
443 1 1 0.5897 8.693227723386162 16.193065350804446 3.5687486933070995 -4 8 1
2 1 1 0.5897 6.902958455787875 16.458580888138826 1.8175149960058015 -2 -4 12
347 1 1 0.5897 5.753544729443372 15.842725634142138 10.677780285096405 -4 4 -3
32 1 1 0.5897 6.668391747927437 14.602324579496853 8.707395177967333 4 4 7
178 1 2 -1.1794 7.660329973949124 12.666372724891424 10.74204985210355 -3 3 -2
31 1 2 -1.1794 7.42170578389023 15.087050599603243 8.370005672514967 4 4 7
33 1 1 0.5897 7.833752423757786 15.46231818861937 9.148251300752605 4 4 7
716 1 1 0.5897 8.786608515228862 14.858978991859841 7.0585304874790875 11 -10 -9
326 1 1 0.5897 4.908557701646412 12.420191400879542 9.247399926911655 0 -6 -2
202 1 2 -1.1794 6.9431936451411165 12.048338974245382 6.733219530349151 -9 -4 2
203 1 1 0.5897 7.769686917005741 12.180870389378697 7.197576497455549 -9 -4 2
344 1 1 0.5897 8.706088298218392 12.57808286333406 9.003475720018303 -5 5 1
476 1 1 0.5897 5.508275189257903 13.408320620336346 6.02053794351398 1 -2 1
143 1 1 0.5897 8.969508774390873 15.525540065531127 10.954650758951388 -9 4 7
180 1 1 0.5897 7.231755676888057 13.485091139491873 10.991701784621721 -3 3 -2
798 1 1 0.5897 8.201514956082196 13.146573864546138 16.05835610098064 3 -7 -3
300 1 1 0.5897 7.713696187707634 15.455228127240924 12.919473837215063 -1 -3 2
797 1 1 0.5897 6.864573224460225 12.542180613385408 15.685150743335859 3 -7 -3
438 1 1 0.5897 6.200274472176979 14.098919407113241 14.13447356906973 -6 6 5
436 1 2 -1.1794 5.938238828479187 13.182917939085806 14.04210031407741 -6 6 5
73 1 2 -1.1794 5.943011772382387 15.852465383652419 14.115291591238353 0 -2 3
168 1 1 0.5897 9.025130340210886 14.561546184222687 14.382803456339351 3 -2 7
15 1 1 0.5897 5.413237468861019 15.354911458140844 15.992723975727383 3 -6 -9
166 1 2 -1.1794 9.021726926763913 14.349697889223318 15.316271987812224 3 -2 7
437 1 1 0.5897 5.047449781149823 13.1517600303869 14.391086323992752 -6 6 5
348 1 1 0.5897 5.029043260679528 14.648021411211028 11.260644691216655 -4 4 -3
298 1 2 -1.1794 8.65689135960395 15.384637201063908 12.772310232720358 -1 -3 2
346 1 2 -1.1794 5.892922650260841 15.05664610209774 11.205910051270717 -4 4 -3
74 1 1 0.5897 6.426806114546136 16.656429871005557 14.304707958263007 0 -2 3
75 1 1 0.5897 5.141217767327337 16.150442858011047 13.685653715803747 0 -2 3
299 1 1 0.5897 8.982253887197123 16.279838380825076 12.867221918175497 -1 -3 2
179 1 1 0.5897 8.380827504288508 12.572903054235848 11.365270373082929 -3 3 -2
13 1 2 -1.1794 5.244746216644689 15.276485367128872 16.931725625753394 3 -6 -9
14 1 1 0.5897 5.941523208081032 14.704516041757698 17.253623455576832 3 -6 -9
380 1 1 0.5897 7.570930904550254 13.36686716608989 19.073719232094984 11 -2 -1
381 1 1 0.5897 7.182594192766933 13.282068127311769 17.61290690884815 11 -2 -1
379 1 2 -1.1794 7.264849268272422 13.899560075877815 18.33967993418817 11 -2 -1
138 1 1 0.5897 5.057725781803288 14.82750588510693 20.563625386284997 6 -7 7
861 1 1 0.5897 8.07068277621029 14.082575259444068 21.103310573485558 -1 -1 5
792 1 1 0.5897 8.391440897440194 15.791182012294405 16.48920955000816 0 8 -6
860 1 1 0.5897 8.53137030720791 15.304057336008611 20.336691822448397 -1 -1 5
790 1 2 -1.1794 8.436745948403566 16.587054322012072 17.019107533764124 0 8 -6
700 1 2 -1.1794 7.4146106603947635 12.314032439805063 20.79624610054564 2 2 1
136 1 2 -1.1794 5.249819367661719 15.664455177845149 20.140677537484443 6 -7 7
859 1 2 -1.1794 8.33710666665774 14.994355609259461 21.221341055261114 -1 -1 5
137 1 1 0.5897 5.188168351830882 15.479494521894564 19.203529552139518 6 -7 7
791 1 1 0.5897 7.954681366329317 16.37155857948218 17.817506124364407 0 8 -6
796 1 2 -1.1794 7.592393634643123 12.448768477894351 16.299816410881114 3 -7 -3