LAMMPS data file via write_data, version 30 Jul 2021, timestep = 6750000

1920 atoms
2 atom types
1280 bonds
1 bond types
640 angles
1 angle types

0.05840199960753978 24.67159900038883 xlo xhi
0.07641317458593022 24.65358782540824 ylo yhi
0.04028526600032478 22.769714733998917 zlo zhi

Masses

1 1.008
2 15.999

Pair Coeffs # lj/cut/tip4p/long/omp

1 0 0
2 0.21084 3.1668

Bond Coeffs # harmonic/omp

1 450 0.9572

Angle Coeffs # harmonic/omp

1 55 104.52

Atoms # full

1 1 2 -1.1794 4.439730934272076 1.5031451625557597 4.180583030163542 0 0 0
2 1 1 0.5897 4.507432966037643 2.2310570010744475 4.798522660257592 0 0 0
3 1 1 0.5897 5.212426967135025 1.5895791720416625 3.622279615662041 0 0 0
4 2 2 -1.1794 2.9016588831266845 1.5310940759536256 1.8853696308391243 0 0 0
5 2 1 0.5897 3.178770339866565 1.4973036525877748 2.8010204711263014 0 0 0
6 2 1 0.5897 1.9452802914889795 1.5251969225971955 1.9237405531797873 0 0 0
9 3 1 0.5897 5.060772189677938 4.673010391329878 3.5209224560696724 0 0 0
10 4 2 -1.1794 3.284401691470925 4.606699210072913 3.5577587266864095 0 0 0
11 4 1 0.5897 2.839239337916655 5.333614918922603 3.993270386347084 0 0 0
12 4 1 0.5897 2.879285114615526 4.561409699266847 2.6916408309359525 0 0 0
13 5 2 -1.1794 1.6603806964182877 2.9995973494967383 5.152097243283699 0 0 0
14 5 1 0.5897 2.380873405065012 3.3191005464766583 4.608917017689165 0 0 0
15 5 1 0.5897 1.7151216559363753 2.0461963240454426 5.086813173707363 0 0 0
19 7 2 -1.1794 4.718108880816489 3.337520506328204 0.7712351503722238 0 0 0
20 7 1 0.5897 3.869625968684588 3.0413220614533127 1.100689380097393 0 0 0
21 7 1 0.5897 5.359187154456752 2.896316043355053 1.3285533648573151 0 0 0
22 8 2 -1.1794 1.7539877375844588 4.553270447995649 1.3248996222257423 0 0 0
23 8 1 0.5897 0.9858088942866023 4.653508642449598 1.88711765805173 0 0 0
24 8 1 0.5897 1.6841981461403228 5.269100171908225 0.6932280776953225 0 0 0
27 9 1 0.5897 4.78171755328646 5.084240928887396 0.6566728419412167 0 0 0
28 10 2 -1.1794 1.5661510151766682 0.28383816032441056 4.903562251381228 0 0 0
387 129 1 0.5897 4.039933058540499 0.3561003313966134 1.1847579758455518 0 1 0
7 3 2 -1.1794 6.017441425541781 4.6893869898444684 3.494808537454748 0 0 0
98 33 1 0.5897 0.32579657928346484 5.4359354956642445 3.8460783721515033 1 0 0
47 16 1 0.5897 5.988412303186188 0.9414974408010987 1.734699194513266 0 0 0
16 6 2 -1.1794 0.22805887681500628 1.5427262333997878 2.0480616675022163 0 0 0
25 9 2 -1.1794 4.653603206695364 6.029128404237455 0.5729639678447638 0 0 0
867 289 1 0.5897 4.655078969961646 0.1325215294409806 5.576564530142698 0 1 0
99 33 1 0.5897 0.23531871197589252 3.9392417978615013 4.054938103802413 1 0 0
1455 485 1 0.5897 1.7232762318774035 3.335451890963064 0.1028668571715508 0 0 1
150 50 1 0.5897 1.540271569370359 6.138594060622907 5.657665935484267 0 0 0
578 193 1 0.5897 0.4036192590314233 3.9443748905249767 9.552031957118563 1 0 0
502 168 2 -1.1794 1.658178663431459 4.9506334797448694 7.155062155601693 0 0 0
489 163 1 0.5897 5.149374096331087 4.793716074989832 9.263825382188008 0 0 0
482 161 1 0.5897 5.285895729994863 1.763063025288084 9.361031440455067 0 0 0
1347 449 1 0.5897 4.664287913939932 0.4153640476446053 11.31207038800066 0 1 0
484 162 2 -1.1794 2.918257546670142 1.6652426438324472 7.782014173867878 0 0 0
508 170 2 -1.1794 1.368656034100109 0.2754499591054611 10.578144615718246 0 0 0
501 167 1 0.5897 4.61069418128272 4.292134204256728 6.381571384785898 0 0 0
498 166 1 0.5897 1.1192682496845539 1.7086690185625426 7.812711175499808 0 0 0
485 162 1 0.5897 3.30527344222042 1.6974372041211419 8.656951387801731 0 0 0
492 164 1 0.5897 2.9563262770574936 4.024267190625444 9.781313403463097 0 0 0
494 165 1 0.5897 1.649492508228057 2.060305633864342 10.70106661033546 0 0 0
493 165 2 -1.1794 1.708886280831162 3.0095888678044895 10.593517427636701 0 0 0
503 168 1 0.5897 0.9008611588104161 4.866137417197822 7.734344788693481 0 0 0
505 169 2 -1.1794 4.569156225954741 6.0656251912347825 6.496525356935483 0 0 0
629 210 1 0.5897 2.1987239840519583 6.0123687851562835 10.191320933195177 0 0 0
486 162 1 0.5897 3.423491322306207 0.995905929504517 7.320525284731669 0 0 0
504 168 1 0.5897 1.650426872324828 4.149372646230998 6.631425013981856 0 0 0
481 161 2 -1.1794 4.546370507124762 1.6197452710220377 9.95162990017236 0 0 0
527 176 1 0.5897 5.980708066370177 0.8811750028258621 7.503162157067232 0 0 0
496 166 2 -1.1794 0.16299313351882871 1.707919281645782 7.853982514711106 0 0 0
490 164 2 -1.1794 3.355158717567767 4.755353275441668 9.309404106359363 0 0 0
483 161 1 0.5897 4.645091774680261 2.290747245738456 10.627135709261333 0 0 0
579 193 1 0.5897 0.11293965410935629 5.418369819056328 9.738413576166753 1 0 0
499 167 2 -1.1794 4.7178804753035655 3.3438645144789882 6.307216805147956 0 0 0
528 176 1 0.5897 5.968039408235804 2.3825953002518316 7.309575275812298 0 0 0
500 167 1 0.5897 3.9811392381431068 2.9798522067879287 6.798067280119844 0 0 0
491 164 1 0.5897 2.8635471350830506 4.808796580968689 8.489785102127959 0 0 0
487 163 2 -1.1794 6.1036990628907635 4.855979555386768 9.303278402059489 0 0 0
961 321 2 -1.1794 4.542290048010481 1.6340027921962168 15.536324241254212 0 0 0
962 321 1 0.5897 5.302167015796364 1.5561517399113292 14.959464133968801 0 0 0
963 321 1 0.5897 4.603687067421047 0.8761076301315691 16.117792948641373 0 0 0
964 322 2 -1.1794 2.8105273980526992 1.6303508434808562 13.401642873525079 0 0 0
965 322 1 0.5897 3.215750209394819 1.5905500620656365 14.267981573546471 0 0 0
966 322 1 0.5897 1.8695073577278105 1.6137477537898466 13.575933554254403 0 0 0
970 324 2 -1.1794 3.180136929390922 4.761808420310343 14.999690627098015 0 0 0
971 324 1 0.5897 4.131136033197455 4.689175060564298 15.080270112485076 0 0 0
972 324 1 0.5897 2.8423136897425985 3.9744552203588275 15.426539890261978 0 0 0
973 325 2 -1.1794 1.6307418008474621 2.906279622796822 16.306830396454554 0 0 0
975 325 1 0.5897 0.8683608586417271 3.3482329987212416 15.933114237754076 0 0 0
979 327 2 -1.1794 4.623803216697371 3.298056584214872 12.113831072544135 0 0 0
980 327 1 0.5897 3.8776801655590365 2.8591822681319643 12.52237584316691 0 0 0
981 327 1 0.5897 5.3846115537513555 2.980842650882347 12.600421543655566 0 0 0
982 328 2 -1.1794 1.3329945114453918 4.613001841059635 12.89369389256333 0 0 0
983 328 1 0.5897 1.3859279376186115 5.3129161594759795 12.242839840991696 0 0 0
984 328 1 0.5897 2.077613509259423 4.768666424542532 13.47468566119824 0 0 0
987 329 1 0.5897 4.6934895787245186 5.0549619598123305 12.09134224829154 0 0 0
990 330 1 0.5897 1.5556214200281595 1.155822517623467 16.379438937621668 0 0 0
967 323 2 -1.1794 6.014161329952937 4.634702336351886 15.131558742727693 0 0 0
1109 370 1 0.5897 0.7001022898580346 5.8326580335681495 16.10275687729589 0 0 0
1346 449 1 0.5897 3.937558621119686 0.44207101569059937 12.639950214751156 0 1 0
1008 336 1 0.5897 6.075076913068567 0.8928402742548072 13.044249772394993 0 0 0
988 330 2 -1.1794 1.4751609640268544 0.2053768888843368 16.29936700947105 0 0 0
1110 370 1 0.5897 2.207951620382335 5.923975335102502 16.003846531299498 0 0 0
985 329 2 -1.1794 4.777692852594419 6.008388267353986 12.10229369104072 0 0 0
976 326 2 -1.1794 0.0962772083136539 1.6281955815363118 13.428440210650487 0 0 0
495 165 1 0.5897 1.5160488884070191 3.362065803029594 11.462375137215657 0 0 0
1460 487 1 0.5897 4.623837493138807 2.7391874407992485 16.962455495274344 0 0 0
1447 483 2 -1.1794 6.1787496498905705 4.563277539066447 20.494673150590067 0 0 0
1826 609 1 0.5897 4.058647180581234 0.23237503012614447 18.35135383347496 0 1 0
1452 484 1 0.5897 3.1381754794585865 4.631155732219216 19.766707865786042 0 0 0
1446 482 1 0.5897 3.4103316869979476 2.2285347292193363 18.837168489441265 0 0 0
1453 485 2 -1.1794 1.7784879493199202 2.8523944570990105 22.007711834849275 0 0 0
1443 481 1 0.5897 4.829952569398791 2.3336986246424067 21.978176100192915 0 0 0
1466 489 1 0.5897 4.729221452086647 5.076121625398819 17.72952968687217 0 0 0
1464 488 1 0.5897 1.048407522314856 4.5838738346965355 19.1876261193454 0 0 0
974 325 1 0.5897 1.7082815370308266 3.2670619590447085 17.190102689193758 0 0 0
1444 482 2 -1.1794 3.089428085982937 1.4901585760242302 19.354937582173502 0 0 0
1538 513 1 0.5897 0.4337389436081962 3.784458527312172 21.060028786756043 1 0 0
1459 487 2 -1.1794 4.619807985537983 3.202373289407415 17.800177794417813 0 0 0
1468 490 2 -1.1794 1.4054634294346608 0.15824318368238513 21.912718890767966 0 0 0
1487 496 1 0.5897 6.039269541715829 1.6048552455155192 19.922693531200025 0 0 0
1539 513 1 0.5897 0.4110610137710915 5.297955330036745 21.08663844869154 1 0 0
1462 488 2 -1.1794 1.7414832611995705 4.469520807718955 18.537370902684902 0 0 0
1461 487 1 0.5897 5.34405819244803 2.8152926901713236 18.291968545058754 0 0 0
1488 496 1 0.5897 5.966479080850386 0.9108163138365817 18.57912633549126 0 0 0
1450 484 2 -1.1794 3.452511776325551 4.611758849203542 20.67067911032588 0 0 0
1590 530 1 0.5897 2.378582334196822 6.057823502284201 21.569471406378806 0 0 0
1454 485 1 0.5897 2.420839954305359 3.3362792147244718 21.488597605552716 0 0 0
1469 490 1 0.5897 1.547729929083661 1.1006385183479326 22.00150434420263 0 0 0
1463 488 1 0.5897 1.6316316867971616 5.207097930849976 17.93720781961368 0 0 0
1442 481 1 0.5897 4.142444152218073 1.6172366547535584 20.835339755303607 0 0 0
1456 486 2 -1.1794 0.28707794636370104 1.5044238177130487 19.212084796893304 0 0 0
1451 484 1 0.5897 4.405047145131625 4.66721994983375 20.594731861337713 0 0 0
1445 482 1 0.5897 2.136187231931319 1.548497508396978 19.290945940832756 0 0 0
1465 489 2 -1.1794 4.608588538886233 6.0256020014350895 17.7166272705987 0 0 0
1441 481 2 -1.1794 4.925545903774643 1.588497823707333 21.385030148018693 0 0 0
386 129 1 0.5897 4.97801778524632 0.3079748829879438 22.726869071697116 0 1 -1
121 41 2 -1.1794 4.515030125939153 7.700480675264716 4.323256283466644 0 0 0
122 41 1 0.5897 3.745797681652402 7.6069702222801165 3.7613203484739977 0 0 0
123 41 1 0.5897 5.256218255130543 7.698858134254075 3.717546720729222 0 0 0
124 42 2 -1.1794 2.960845104436476 7.663563312212262 1.9875716798438359 0 0 0
125 42 1 0.5897 3.3717910999077585 6.9051348221468265 1.5726573373850599 0 0 0
126 42 1 0.5897 3.429751738048294 8.416890737556134 1.628602811413663 0 0 0
129 43 1 0.5897 5.067185531337541 10.722215690094938 3.50612177685973 0 0 0
130 44 2 -1.1794 3.2462167553378922 10.899135884774322 3.4644009946684493 0 0 0
131 44 1 0.5897 2.893625717094302 11.677288485419522 3.8961509337298708 0 0 0
132 44 1 0.5897 2.793659673641256 10.166750707620007 3.882788596290537 0 0 0
133 45 2 -1.1794 1.4595405523221792 9.2172879896087 4.824614447967487 0 0 0
135 45 1 0.5897 0.7458676747369798 9.698735111159207 4.406162934829399 0 0 0
137 46 1 0.5897 1.1272409293050134 7.74417892888973 2.092596230460335 0 0 0
139 47 2 -1.1794 4.701081604604617 9.582071484412863 0.8610136946217645 0 0 0
140 47 1 0.5897 4.713280376411309 10.507879037098409 0.6181721711670211 0 0 0
142 48 2 -1.1794 1.371697552099819 10.741354146747081 1.4045920089784178 0 0 0
143 48 1 0.5897 2.141414164171713 10.822350136656581 1.9678074664252916 0 0 0
144 48 1 0.5897 1.4629579532188415 11.45191502929126 0.7697185427896486 0 0 0
149 50 1 0.5897 1.5172917339368917 7.41765910169551 4.848061395022113 0 0 0
148 50 2 -1.1794 1.5955264344855804 6.467692737342664 4.760452137803838 0 0 0
218 73 1 0.5897 0.1936650878340005 10.90152686539548 2.803798688114513 1 0 0
168 56 1 0.5897 5.910674983895788 8.529566541071029 1.8393108759817058 0 0 0
270 90 1 0.5897 0.8964853576775046 12.17750907456613 4.632732437043189 0 0 0
127 43 2 -1.1794 6.016579510381164 10.614249270792758 3.562364857210515 0 0 0
136 46 2 -1.1794 0.18822980077294335 7.923039093226791 2.14194491075832 0 0 0
26 9 1 0.5897 5.371895782087834 6.4141130475031725 1.0750348129408176 0 0 0
507 169 1 0.5897 4.629804647647568 6.527007234558208 5.6599951532391115 0 0 0
145 49 2 -1.1794 4.837670264964064 12.24951072799529 0.7570530235007652 0 0 0
621 207 1 0.5897 4.52113674768493 9.060266260674302 5.647635448421371 0 0 0
134 45 1 0.5897 1.5320723844853292 9.605472827889725 5.69662072468807 0 0 0
1574 525 1 0.5897 1.498616091233792 9.576331882045658 0.09339490973028575 0 0 1
610 204 2 -1.1794 3.2603986410011987 10.757436420027288 9.256617367782743 0 0 0
605 202 1 0.5897 3.156558137063009 8.467537631797246 7.5093441749773575 0 0 0
614 205 1 0.5897 2.3146610871339766 9.483155413098714 10.214174137594487 0 0 0
622 208 2 -1.1794 1.5021872052262368 10.613897912592986 7.181993395177264 0 0 0
616 206 2 -1.1794 0.19436847339061597 7.684769740957478 7.724358774545229 0 0 0
613 205 2 -1.1794 1.573422641520225 9.08115282818808 10.667144294132179 0 0 0
615 205 1 0.5897 0.801374533047587 9.464220841202287 10.250713564559367 0 0 0
624 208 1 0.5897 1.593424697138925 11.391667758094432 6.631515211386289 0 0 0
603 201 1 0.5897 3.991728837168647 7.7371159869309025 9.428497717184438 0 0 0
647 216 1 0.5897 5.80694283075052 7.82829342725564 8.613696603212203 0 0 0
628 210 2 -1.1794 1.4995669260494815 6.324794505771737 10.765614150760634 0 0 0
604 202 2 -1.1794 2.903821163078874 7.729649678998721 8.06424694690053 0 0 0
607 203 2 -1.1794 5.97144509082601 10.941468124232314 9.367996032798732 0 0 0
648 216 1 0.5897 5.887217968595897 7.075560675285961 7.302552878391959 0 0 0
698 233 1 0.5897 0.40435700958859205 11.474859186537708 9.888200827550103 1 0 0
630 210 1 0.5897 1.5109394631808035 7.2762827145486515 10.661815256865056 0 0 0
506 169 1 0.5897 3.866788274329102 6.513988094258688 6.967566276687485 0 0 0
612 204 1 0.5897 2.8861910503699244 11.518864517642344 9.699844821854853 0 0 0
602 201 1 0.5897 4.707529676824823 7.0717733463523365 10.584786232139699 0 0 0
620 207 1 0.5897 5.257222207658136 9.04953134981783 6.970577974445025 0 0 0
601 201 2 -1.1794 4.720137283044004 7.857215538339269 10.037796969556476 0 0 0
619 207 2 -1.1794 4.503635929431511 9.438600424676872 6.526784229204424 0 0 0
606 202 1 0.5897 1.961057564374823 7.637809930609579 7.926652030645943 0 0 0
699 233 1 0.5897 0.367013426612065 10.797142632913209 8.534883196380935 1 0 0
611 204 1 0.5897 4.206828361885983 10.89053048422619 9.308814256508471 0 0 0
626 209 1 0.5897 4.53676055987971 11.223659203541988 6.467670542361464 0 0 0
623 208 1 0.5897 2.2376966032759587 10.664300791509346 7.7925133244503835 0 0 0
625 209 2 -1.1794 4.4708173965230396 12.178567189365287 6.473676371381208 0 0 0
1081 361 2 -1.1794 4.7579048636377275 7.7167507408714435 15.63631993789355 0 0 0
1082 361 1 0.5897 4.85277304728799 8.482760952614134 16.202452827630335 0 0 0
1083 361 1 0.5897 4.713559050782695 6.975760305356245 16.24068096778279 0 0 0
1084 362 2 -1.1794 3.019659967598025 7.6322933332513285 13.502298412730402 0 0 0
1085 362 1 0.5897 3.4894092284255995 7.5766134111045895 14.334496596468552 0 0 0
1086 362 1 0.5897 3.4327875816369904 8.362750034419246 13.04185198012786 0 0 0
1089 363 1 0.5897 5.101681710982105 10.697277917247648 15.106030006971158 0 0 0
1090 364 2 -1.1794 3.356674193599758 10.715935788246798 15.018550162020622 0 0 0
1091 364 1 0.5897 2.911799269371394 11.477389777039036 15.39072591453659 0 0 0
1092 364 1 0.5897 2.90504753545089 9.963537682304057 15.400872240671776 0 0 0
1093 365 2 -1.1794 1.7786162970565196 9.035784658178205 16.47605429809689 0 0 0
1094 365 1 0.5897 1.5836241214403783 8.102887952823586 16.565000954168344 0 0 0
1095 365 1 0.5897 1.088367157954803 9.371803566041953 15.90430902414983 0 0 0
1097 366 1 0.5897 1.203171326423873 7.684124199356445 13.442799693030423 0 0 0
1099 367 2 -1.1794 4.585054246284913 9.481658757006867 12.263064588160576 0 0 0
1100 367 1 0.5897 5.282705148618031 9.06680047330037 12.770422412463274 0 0 0
1102 368 2 -1.1794 1.5685715543218157 10.750273402338411 12.87869056820475 0 0 0
1103 368 1 0.5897 1.6622169572607264 10.014855689317647 12.27315029700789 0 0 0
1104 368 1 0.5897 2.317326972965453 10.671359709406188 13.469774143999105 0 0 0
1107 369 1 0.5897 4.587488867314557 11.277742177390918 12.22819905207922 0 0 0
1087 363 2 -1.1794 6.056261274803391 10.63045079684066 15.127893827462707 0 0 0
1179 393 1 0.5897 0.37542743164203046 10.689372448289054 14.1864021819128 1 0 0
1127 376 1 0.5897 5.874074745229236 7.791871556301969 14.279206145512736 0 0 0
1178 393 1 0.5897 0.3385348761712107 11.340973649262237 15.55249991022961 1 0 0
1128 376 1 0.5897 6.014899839166435 7.104507682778866 12.937618787391125 0 0 0
1108 370 2 -1.1794 1.4579880818518516 6.277434531308526 16.48222363850137 0 0 0
1096 366 2 -1.1794 0.24933946788888478 7.723490205702062 13.373361663249884 0 0 0
1105 369 2 -1.1794 4.6791735309844515 12.2264291620579 12.316623720019566 0 0 0
986 329 1 0.5897 3.9706832228524793 6.315860416396489 12.515096117027847 0 0 0
750 250 1 0.5897 1.6285737634789166 12.11423228358207 11.55010953874033 0 0 0
1101 367 1 0.5897 4.6048600505435 9.034205161253345 11.417055594042687 0 0 0
1230 410 1 0.5897 1.7231653916093401 12.236400279317971 17.1162195579399 0 0 0
1562 521 1 0.5897 4.842675425381175 7.160151677945398 21.91694080255252 0 0 0
141 47 1 0.5897 4.8193668068009945 9.115396675633178 22.76306439355707 0 0 -1
1608 536 1 0.5897 6.175866318384335 7.600969079130057 20.00982288078465 0 0 0
1566 522 1 0.5897 3.4198694175895716 6.9960767265091715 18.813537954948604 0 0 0
1580 527 1 0.5897 3.972042265146213 9.05691890641537 18.376292005139746 0 0 0
1567 523 2 -1.1794 6.115743769990701 10.866328825907921 20.58434627882588 0 0 0
1710 570 1 0.5897 2.3472094979855473 12.185719133805158 21.668718190205354 0 0 0
1585 529 2 -1.1794 4.715220408095854 12.154257799464785 17.771426818763477 0 0 0
1571 524 1 0.5897 3.000665170160107 10.866175181550842 19.864531580969878 0 0 0
1588 530 2 -1.1794 1.5593680999734356 6.313822729070695 21.9932207006253 0 0 0
1570 524 2 -1.1794 3.33818436060525 10.854149037632407 20.760231001641312 0 0 0
1573 525 2 -1.1794 1.5729492748870737 9.097261542270253 21.997416032847752 0 0 0
1575 525 1 0.5897 2.1947513843321986 9.60774365497992 21.478750288667545 0 0 0
1576 526 2 -1.1794 0.34572593185460115 7.491062627072266 19.165213462760583 0 0 0
1581 527 1 0.5897 5.46906614917515 8.833003821682126 18.35362802305156 0 0 0
1467 489 1 0.5897 5.377110731530788 6.371355138366112 18.17055338898477 0 0 0
1563 521 1 0.5897 4.214752933855113 7.936149540960382 20.778691634604897 0 0 0
1584 528 1 0.5897 1.8801452525536184 10.2098903370784 17.79708252203121 0 0 0
1579 527 2 -1.1794 4.776609531754139 9.361106438774101 17.9563489053214 0 0 0
1572 524 1 0.5897 4.2897992981517366 10.842823512072682 20.65791245994866 0 0 0
1587 529 1 0.5897 4.793181454472917 11.20638375839574 17.879551543555767 0 0 0
1583 528 1 0.5897 1.1687349289497104 10.798233704094205 18.99700596079903 0 0 0
1582 528 2 -1.1794 1.9436207296074992 10.910388446393709 18.44636337756662 0 0 0
1564 522 2 -1.1794 3.0268143564379018 7.630114223087747 19.413352294108833 0 0 0
1709 570 1 0.5897 0.8532222812829428 12.167734021889398 21.424955053786302 0 0 0
1565 522 1 0.5897 2.0834837133249007 7.5214010372637965 19.293025234341936 0 0 0
1561 521 2 -1.1794 4.970682016019941 7.932314958678586 21.36589318460646 0 0 0
1658 553 1 0.5897 0.2761700859814823 10.104298703271084 21.02567292576688 1 0 0
1589 530 1 0.5897 1.5979212900798445 7.269436796648549 22.032551999229533 0 0 0
241 81 2 -1.1794 4.698854144284203 14.00728710065941 4.395399992138264 0 0 0
242 81 1 0.5897 4.566800091756294 13.293257743214774 5.019111312947867 0 0 0
243 81 1 0.5897 4.026378595544177 13.87054065470726 3.7280622627329416 0 0 0
244 82 2 -1.1794 2.988050460734293 13.681928030540982 2.2944508100860523 0 0 0
245 82 1 0.5897 2.037393652945391 13.78600715083409 2.254627007254736 0 0 0
246 82 1 0.5897 3.333659171984601 14.475307005509238 1.885362463074018 0 0 0
250 84 2 -1.1794 3.2698835473425305 16.96827505646349 3.919267530527853 0 0 0
251 84 1 0.5897 2.891342086204806 16.948194858797724 3.0402689239364857 0 0 0
252 84 1 0.5897 4.215561992262953 16.98879356807069 3.772829613633613 0 0 0
253 85 2 -1.1794 1.4117145573062908 15.210514761268138 5.0062110004394205 0 0 0
254 85 1 0.5897 0.7220376167801893 15.646139158925594 4.505398169652719 0 0 0
255 85 1 0.5897 2.1984739095860224 15.726453618511579 4.830114278696804 0 0 0
259 87 2 -1.1794 4.4888211058668634 15.670525487189364 0.8914443968843023 0 0 0
260 87 1 0.5897 4.543368613209817 16.605139265091232 0.6920489337895541 0 0 0
262 88 2 -1.1794 1.6412926487331934 17.082088261072265 1.643168661740974 0 0 0
263 88 1 0.5897 1.6650255416764137 16.31999047200948 1.0644422628672172 0 0 0
264 88 1 0.5897 1.5713995374968268 17.830933204374116 1.0510285900650833 0 0 0
269 90 1 0.5897 1.6026402778537845 13.425098712841745 5.119312637231825 0 0 0
288 96 1 0.5897 5.804748247879329 14.727894812064608 1.7175279818923326 0 0 0
268 90 2 -1.1794 1.6719768924525629 12.470447215123807 5.111295009687995 0 0 0
247 83 2 -1.1794 6.0004467024929715 16.97339603144692 3.7156776104491964 0 0 0
146 49 1 0.5897 5.564459004419136 12.697369727895364 1.1899780027029325 0 0 0
147 49 1 0.5897 4.080197358912451 12.426916448504198 1.3147249569040131 0 0 0
338 113 1 0.5897 0.3318220791014123 17.054788467851147 2.8217655158412827 1 0 0
287 96 1 0.5897 5.992808458318156 14.007489473904458 3.0357832483790017 0 0 0
265 89 2 -1.1794 4.604293540376795 18.428306672899353 0.7673450199152226 0 0 0
256 86 2 -1.1794 0.21418761989914964 13.922930523169732 2.118346787899754 0 0 0
339 113 1 0.5897 0.19895696894353013 17.72450680380023 4.173055505618713 1 0 0
389 130 1 0.5897 2.1888987544808556 18.383369909009797 4.620802236455259 0 0 0
740 247 1 0.5897 4.676496223465043 15.194274573384645 5.730162123334673 0 0 0
723 241 1 0.5897 5.467141910337717 13.959358317336427 9.340097854207743 0 0 0
733 245 2 -1.1794 1.6893814684392596 15.218337001358545 10.795749503377035 0 0 0
731 244 1 0.5897 2.867498399834275 17.035962962673743 8.581987851476601 0 0 0
818 273 1 0.5897 0.3537502308436569 16.97543839647904 8.542686986362378 1 0 0
728 243 1 0.5897 5.101743438754952 16.934806832699447 9.227524602535162 0 0 0
737 246 1 0.5897 1.1739178353243869 13.997874601675068 8.041602893298942 0 0 0
726 242 1 0.5897 3.3516622259012645 13.16492923773721 7.5399638261562165 0 0 0
749 250 1 0.5897 1.6249267202175648 13.45090899841415 10.839300537697294 0 0 0
742 248 2 -1.1794 1.5441045111915572 16.971914340432967 7.204073131258836 0 0 0
732 244 1 0.5897 2.8792297342763016 16.223530832047 9.859465475913685 0 0 0
739 247 2 -1.1794 4.6774373431143585 15.612369246852536 6.591288558223647 0 0 0
730 244 2 -1.1794 3.3508348891605313 16.91818873711416 9.399808191846702 0 0 0
745 249 2 -1.1794 4.735064376284793 18.35630879562779 6.506334278512375 0 0 0
1221 407 1 0.5897 4.863577551517778 15.219647588300047 11.35637331956253 0 0 0
722 241 1 0.5897 3.965712532167368 13.934932735659181 9.53206297569171 0 0 0
768 256 1 0.5897 5.985631835836075 14.501096229517545 7.297506256745358 0 0 0
727 243 2 -1.1794 6.056230019683168 16.8632991789145 9.230413142215493 0 0 0
869 290 1 0.5897 0.8703732970593447 18.391040466115875 10.323758771006288 0 0 0
736 246 2 -1.1794 0.22694543100460993 13.997148114689008 7.902272845950003 0 0 0
735 245 1 0.5897 0.982227793870196 15.621806946610564 10.292384077322197 0 0 0
721 241 2 -1.1794 4.790772557867739 13.943857539885096 10.017260008300326 0 0 0
870 290 1 0.5897 2.3808503002652044 18.313194854688877 10.259492568424822 0 0 0
741 247 1 0.5897 4.734078889620306 16.549183712619122 6.40311978669193 0 0 0
744 248 1 0.5897 1.38998921649528 16.187900710948742 6.676965227662359 0 0 0
748 250 2 -1.1794 1.6901369231706154 12.509254454124127 10.680333683795117 0 0 0
743 248 1 0.5897 1.439263528253146 17.69848386149662 6.589751494793015 0 0 0
724 242 2 -1.1794 2.9494550330179123 13.915912639382409 7.9764289557818895 0 0 0
725 242 1 0.5897 3.376457106985062 14.677956496263445 7.585019461176747 0 0 0
627 209 1 0.5897 5.26699750200156 12.471329280139576 6.917073905307453 0 0 0
1201 401 2 -1.1794 4.669910507457063 14.020687406047237 15.766187722393818 0 0 0
1202 401 1 0.5897 5.379292987606218 13.917823059508265 15.131797228138527 0 0 0
1203 401 1 0.5897 4.740445323741233 13.25176865453459 16.3319320861013 0 0 0
1204 402 2 -1.1794 3.0608231321571604 14.047046465319719 13.517350323254268 0 0 0
1205 402 1 0.5897 3.416029618325565 14.126236411758079 14.402728704656564 0 0 0
1206 402 1 0.5897 3.537597260275385 13.311743097628625 13.132312241443444 0 0 0
1210 404 2 -1.1794 3.386329808988489 16.99867050578786 14.935202716715581 0 0 0
1211 404 1 0.5897 3.0496799563868593 17.664789710242545 15.534558761231041 0 0 0
1212 404 1 0.5897 4.3349971519242985 17.12565224922759 14.943698111973283 0 0 0
1213 405 2 -1.1794 1.7100879465978318 15.234601045733605 16.41036635550144 0 0 0
1214 405 1 0.5897 0.9772147439874184 15.70839335084062 16.017129861801997 0 0 0
1215 405 1 0.5897 2.483404950851601 15.569087724475052 15.956144361011884 0 0 0
1218 406 1 0.5897 1.2379354990381832 13.94410873115648 13.623514923493389 0 0 0
1219 407 2 -1.1794 4.866212253928933 15.670090365760249 12.201021601379098 0 0 0
1220 407 1 0.5897 4.1274810284087255 15.291209640766803 12.677415011288176 0 0 0
1222 408 2 -1.1794 1.585291233375965 16.954430090685946 12.888389591847899 0 0 0
1223 408 1 0.5897 1.7336937316053902 17.65204313125066 12.249951914735298 0 0 0
1224 408 1 0.5897 2.3066148805202253 17.041877009371163 13.511524389594255 0 0 0
1227 409 1 0.5897 4.686215107427747 17.48823927721914 12.133703524870132 0 0 0
1229 410 1 0.5897 1.6846563071614546 13.481284960524194 16.255532773222313 0 0 0
1216 406 2 -1.1794 0.2927204552640267 13.798586158058038 13.584034245095106 0 0 0
1298 433 1 0.5897 0.3613964568451562 16.98652497249852 14.193965546453535 1 0 0
1248 416 1 0.5897 5.986826209581573 13.158009694657036 13.256205674620867 0 0 0
1228 410 2 -1.1794 1.6190266241743871 12.5274125107009 16.210229170801984 0 0 0
1225 409 2 -1.1794 4.496810902781506 18.425872276433612 12.099067387778396 0 0 0
1247 416 1 0.5897 6.012593510027963 14.671402863672917 13.285720995333175 0 0 0
1350 450 1 0.5897 1.0825362675561625 18.375607676435685 15.9523338307137 0 0 0
1207 403 2 -1.1794 6.169914022912849 17.131516813243863 15.090863652339603 0 0 0
734 245 1 0.5897 1.7015212188249935 15.70119787812995 11.622206440906545 0 0 0
1700 567 1 0.5897 4.7193156827253455 15.25608425833844 17.06284305999528 0 0 0
1106 369 1 0.5897 4.690276775448469 12.551402779393099 11.416279552605996 0 0 0
1708 570 2 -1.1794 1.5243045292586932 12.559433031760744 21.983939643075743 0 0 0
1682 561 1 0.5897 5.414824650791405 13.908983296944097 20.792337251817948 0 0 0
1695 565 1 0.5897 1.5385709694380107 14.364681654990434 22.132626468651427 0 0 0
1778 593 1 0.5897 0.41681351740981165 16.921883357438936 19.879911692584937 1 0 0
1699 567 2 -1.1794 4.716975533702065 15.696706981807264 17.91265794751267 0 0 0
1701 567 1 0.5897 4.07550256636813 15.212347995447114 18.432418727991166 0 0 0
1586 529 1 0.5897 5.450748723539924 12.513680482991111 18.26745492924795 0 0 0
1696 566 2 -1.1794 0.4493643208093183 13.639878335269445 19.152243539177125 0 0 0
1692 564 1 0.5897 2.894431092655705 17.101881498383865 19.967316236370106 0 0 0
1702 568 2 -1.1794 1.6824908747487808 16.99631426211559 18.57926279234905 0 0 0
1705 569 2 -1.1794 4.687143145622489 18.448096617602797 17.938874585651043 0 0 0
1691 564 1 0.5897 2.8858386023175435 16.427370123181962 21.322723017836758 0 0 0
1686 562 1 0.5897 3.5544401135326607 13.933972058567129 20.139649318462688 0 0 0
1687 563 2 -1.1794 6.033187785184994 17.06685824308756 20.80320612661338 0 0 0
1693 565 2 -1.1794 1.654292091438409 15.30805421915243 22.246156550070385 0 0 0
1694 565 1 0.5897 0.9490683823739602 15.700043542298928 21.731144091955187 0 0 0
1830 610 1 0.5897 2.2794959099006507 18.33020486223852 21.701469067451363 0 0 0
1690 564 2 -1.1794 3.3149982563235723 17.12469667085425 20.826927028899124 0 0 0
1684 562 2 -1.1794 3.1329433522992125 13.930121293559383 19.280198803226387 0 0 0
1703 568 1 0.5897 1.7413532111789365 16.251705944025947 17.980616100878233 0 0 0
1683 561 1 0.5897 4.796349918073354 13.294227634548726 22.029938829978004 0 0 0
1685 562 1 0.5897 3.558329263530097 13.214736333800687 18.8074183376595 0 0 0
1704 568 1 0.5897 1.7809178073680485 17.764654123380726 18.01690669282716 0 0 0
1779 593 1 0.5897 0.3321099915564827 17.57311553042231 21.244057065938193 1 0 0
1681 561 2 -1.1794 4.704637351703174 14.028627696732206 21.422871163391626 0 0 0
1689 563 1 0.5897 5.087027656757959 17.073194230367886 20.65860146697426 0 0 0
1697 566 1 0.5897 1.3944933994471365 13.786838214250873 19.188315885435834 0 0 0
1728 576 1 0.5897 6.152109543348905 14.621861625024966 18.711120500287375 0 0 0
1707 569 1 0.5897 4.76290057822191 17.496722935673137 17.865518609333847 0 0 0
261 87 1 0.5897 4.533208433829814 15.24001351193294 22.767041923633148 0 0 -1
1698 566 1 0.5897 0.11746946703014771 14.347141726827124 18.599167919468893 0 0 0
361 121 2 -1.1794 4.792788515681375 19.997720537857163 4.25131389942782 0 0 0
362 121 1 0.5897 4.046221214595536 19.932827342635292 3.6557736481721035 0 0 0
363 121 1 0.5897 4.706135205055928 19.238972206697884 4.828437638067259 0 0 0
364 122 2 -1.1794 2.973161517878323 19.95739092023002 2.2261761812327365 0 0 0
365 122 1 0.5897 3.313336618009786 20.684126091208704 1.7042540982480656 0 0 0
366 122 1 0.5897 2.022963531724143 20.013974302551716 2.125725013154392 0 0 0
370 124 2 -1.1794 3.2649042797474515 23.12711644839094 3.4122391065933226 0 0 0
371 124 1 0.5897 4.217249525264493 23.104786790703546 3.505552416051981 0 0 0
372 124 1 0.5897 2.950110818373463 22.439406803087913 3.9989559788526035 0 0 0
373 125 2 -1.1794 1.7088338843259345 21.47301029830008 4.982116989768025 0 0 0
375 125 1 0.5897 0.9857241220359371 21.8823788931613 4.50697818097035 0 0 0
379 127 2 -1.1794 4.477552194701128 21.801923725411747 0.6898844674315909 0 0 0
380 127 1 0.5897 4.655162348398113 22.738035613992388 0.7814256306555808 0 0 0
381 127 1 0.5897 5.2225586430944935 21.373917423814262 1.1117776749956483 0 0 0