LAMMPS (30 Jul 2021)
  using 1 OpenMP thread(s) per MPI task
package omp 0
using multi-threaded neighbor list subroutines
echo both

include		in.partitions
variable        pid world 0
include		in.temp
variable        temperature equal 262.68
variable	tempDamp equal 100.0
include		in.pressure
variable        pressure equal 3875.0
variable        pressureDamp equal 1000.0 # This is 1 ps
include		in.seed
variable        seed world 745823

units		real
atom_style	full
read_restart	restart.lmp.${pid}
read_restart	restart.lmp.0
Reading restart file ...
  restart file = 30 Jul 2021, LAMMPS = 30 Jul 2021
  restoring atom style full from restart
  orthogonal box = (0.36891544 1.5260649 0.45007598) to (17.838657 22.103113 21.763120)
  4 by 4 by 4 MPI processor grid
  restoring pair style lj/cut/tip4p/long/omp from restart
  restoring bond style harmonic/omp from restart
  restoring angle style harmonic/omp from restart
  864 atoms
  576 bonds
  288 angles
Finding 1-2 1-3 1-4 neighbors ...
  special bond factors lj:    0        0        0       
  special bond factors coul:  0        0        0       
     2 = max # of 1-2 neighbors
     1 = max # of 1-3 neighbors
     1 = max # of 1-4 neighbors
     2 = max # of special neighbors
  special bonds CPU = 0.883 seconds
  read_restart CPU = 1.347 seconds
include 	in.setup
variable	out_freq equal 1000
variable	out_freq2 equal 10000
variable	out_freq3 equal 1000

timestep	2.0

neigh_modify    delay 7 every 1

include		in.tip4p
# This is TIP4P/Ice

# create groups ###
group ox type 2
288 atoms in group ox
group hy type 1
576 atoms in group hy

# set charges - beside manually ###
set group ox charge -1.1794
Setting atom values ...
  288 settings made for charge
set group hy charge 0.5897
Setting atom values ...
  576 settings made for charge

# ### TIP3P Potential Parameters ###
pair_style lj/cut/tip4p/long/omp 2 1 1 1 0.1577 8.5
pair_coeff 1 1*2 0.000 0.000
pair_coeff 2 2 0.21084 3.1668
bond_style  harmonic
bond_coeff  1 450 0.9572
angle_style harmonic
angle_coeff 1 55 104.52
kspace_style pppm/tip4p/omp 1.0e-5
pair_modify tail yes

thermo          ${out_freq}
thermo          1000
thermo_style    custom step temp pe etotal epair emol press lx ly lz vol pxx pyy pzz pxy pxz pyz enthalpy

restart 	${out_freq3} restart.lmp.${pid} restart2.lmp.${pid}
restart 	1000 restart.lmp.${pid} restart2.lmp.${pid}
restart 	1000 restart.lmp.0 restart2.lmp.${pid}
restart 	1000 restart.lmp.0 restart2.lmp.0


include         in.dump
dump            myDump all atom ${out_freq2} dump.water.${pid}
dump            myDump all atom 10000 dump.water.${pid}
dump            myDump all atom 10000 dump.water.0
dump            myDump2 all dcd ${out_freq2} dump.dcd
dump            myDump2 all dcd 10000 dump.dcd
dump_modify     myDump append yes
dump_modify     myDump2 append yes


variable natoms 	equal  "count(all)"                        # NUMBER ATOMS
variable H      	equal  "enthalpy/v_natoms"                 # ENTHALPY-per-atom
variable Vol      	equal  "vol/v_natoms"                 # volume-per-atom
fix AVG all 		ave/time ${out_freq} 1 ${out_freq} v_Vol v_H file vol_enthalpy.dat
fix AVG all 		ave/time 1000 1 ${out_freq} v_Vol v_H file vol_enthalpy.dat
fix AVG all 		ave/time 1000 1 1000 v_Vol v_H file vol_enthalpy.dat


timer           timeout 23:50:00 every 1000
New timer settings: style=normal  mode=nosync  timeout=23:50:00

fix 		1 all shake 1e-6 200 0 b 1 a 1
       0 = # of size 2 clusters
       0 = # of size 3 clusters
       0 = # of size 4 clusters
     288 = # of frozen angles
  find clusters CPU = 0.124 seconds
fix             2 all nph iso ${pressure} ${pressure} ${pressureDamp}
fix             2 all nph iso 3875 ${pressure} ${pressureDamp}
fix             2 all nph iso 3875 3875 ${pressureDamp}
fix             2 all nph iso 3875 3875 1000
fix             3 all temp/csvr ${temperature} ${temperature} ${tempDamp} ${seed}
fix             3 all temp/csvr 262.68 ${temperature} ${tempDamp} ${seed}
fix             3 all temp/csvr 262.68 262.68 ${tempDamp} ${seed}
fix             3 all temp/csvr 262.68 262.68 100 ${seed}
fix             3 all temp/csvr 262.68 262.68 100 745823

run             250000
PPPM initialization ...
  extracting TIP4P info from pair style
  using 12-bit tables for long-range coulomb (../kspace.cpp:340)
  G vector (1/distance) = 0.37345468
  grid = 24 24 25
  stencil order = 5
  estimated absolute RMS force accuracy = 0.0031625613
  estimated relative force accuracy = 9.5239595e-06
  using double precision FFTW3
  3d grid and FFT values/proc = 2730 288
Last active /omp style is kspace_style pppm/tip4p/omp
Neighbor list info ...
  update every 1 steps, delay 7 steps, check yes
  max neighbors/atom: 2000, page size: 100000
  master list distance cutoff = 10.8154
  ghost atom cutoff = 10.8154
  binsize = 5.4077, bins = 4 4 4
  1 neighbor lists, perpetual/occasional/extra = 1 0 0
  (1) pair lj/cut/tip4p/long/omp, perpetual
      attributes: half, newton on, omp
      pair build: half/bin/newton/omp
      stencil: half/bin/3d
      bin: standard
Per MPI rank memory allocation (min/avg/max) = 9.237 | 9.242 | 9.248 Mbytes
Step Temp PotEng TotEng E_pair E_mol Press Lx Ly Lz Volume Pxx Pyy Pzz Pxy Pxz Pyz Enthalpy 
  750000     268.1635   -3826.5918   -3366.9687   -3826.5918            0    1361.9838    17.469742    20.577048    21.313044    7661.5215     1619.221    1207.4235    1259.3069     243.9523    139.27079   -390.72141   -3214.7869 
  751000    271.21936   -3861.0222   -3396.1615   -3861.0222            0    3089.3373    17.326535    20.408369    21.138332    7474.6475    2998.8109     3475.818    2793.3831   -934.83661    675.44538    -747.4648   -3059.3927 
  752000    263.40106   -3867.6534    -3416.193   -3867.6534            0    4893.2665    17.350368    20.436442    21.167409    7505.5355    4341.1051    5777.2346    4561.4598    1855.3162   -1034.5535   -1384.9322   -2880.5735 
  753000    259.71064   -3850.6737   -3405.5386   -3850.6737            0    4901.8142     17.38588     20.47827    21.210733    7551.7154    4620.2378     5205.769    4879.4358   -356.53964    874.39954    4.1736513   -2865.6821 
  754000    249.94028   -3873.4044   -3445.0153   -3873.4044            0    3245.6648    17.381501    20.473112    21.205391    7546.0107    3459.0989    2847.2656    3430.6299    445.85285    -1014.928   -100.79067   -3087.8272 
  755000    267.49191   -3868.1249   -3409.6529   -3868.1249            0    4038.7647    17.408002    20.504327    21.237721    7580.5785    3302.4654    4915.3706    3898.4581    739.06391    367.28053   -1225.9839   -2963.1474 
  756000    275.39393   -3881.2761   -3409.2603   -3881.2761            0    3647.5685    17.350779    20.436926     21.16791    7506.0688     3905.412    3051.1405     3986.153   -23.040627   -113.78983   -586.00445   -3009.9672 
  757000    253.14928    -3856.231   -3422.3418    -3856.231            0    4427.7316    17.376001    20.466634     21.19868    7538.8494    4680.8218    4631.4653    3970.9076   -916.49283    -334.1864   -324.96733   -2935.5287 
  758000     275.0061   -3879.6589   -3408.3079   -3879.6589            0    3897.5047    17.374176    20.464484    21.196454    7536.4742     3606.541     5113.992    2971.9811     848.3045   -1434.6207   -601.53343   -2979.9263 
  759000    276.73445    -3862.704   -3388.3906    -3862.704            0    4231.5238    17.326399    20.408209    21.138166    7474.4716    1898.7796    6460.7469    4335.0449   -1338.5908    647.72844   -38.476563   -2927.1228 
  760000    258.70802   -3860.9413   -3417.5247   -3860.9413            0     3866.595    17.392586    20.486169    21.218914    7560.4569    4552.7758    3820.4346    3226.5747    846.47593   -519.18091   -205.89987   -2991.1881 
  761000    268.55011   -3884.7656   -3424.4799   -3884.7656            0    4544.8533    17.349351    20.435244    21.166168    7504.2159    4085.7302    4889.5155    4659.3143   -287.25958   -435.37563    922.79283   -2927.0853 
  762000    259.72189   -3821.7914   -3376.6369   -3821.7914            0    2391.1732    17.491617    20.602814    21.339732    7690.3387     2692.433    2610.1179    1870.9688      973.365    1932.3517    84.696239   -3108.4532 
  763000    268.29681   -3845.1647   -3385.3131   -3845.1647            0    3892.2265     17.46164    20.567505     21.30316    7650.8675    5110.1778    3734.1733    2832.3284   -1019.1474    79.250404    98.460172   -2951.0182 
  764000    258.79942   -3892.3087   -3448.7353   -3892.3087            0    4168.4704    17.403089     20.49854    21.231727    7574.1619    4602.0764    4145.4893    3757.8454    -1124.623     99.16771    519.77897   -2988.2803 
  765000    262.12685   -3868.2987   -3419.0223   -3868.2987            0    4324.3599    17.490404    20.601386    21.338252    7688.7393    4703.2395    4146.9085    4122.9317   -1181.2102     953.3951    626.41644   -2934.1215 
  766000    270.55249   -3852.9709   -3389.2532   -3852.9709            0    4680.0683    17.407026    20.503178    21.236531    7579.3044    4980.1267    3272.2452     5787.833    1490.7329   -289.69576    357.35063   -2871.9354 
  767000    269.76925   -3861.9773   -3399.6021   -3861.9773            0    5245.2032    17.360711    20.448625    21.180027    7518.9664    6515.6601    5679.1457    3540.8039   -801.40908    1008.0178    1456.0911   -2824.4319 
  768000    255.72978   -3885.1949   -3446.8828   -3885.1949            0    1814.7162    17.496013    20.607992    21.345095    7696.1379    1014.2012    2461.2777    1968.6696   -1048.4435   -875.15097     619.7101   -3243.1986 
  769000    278.77931   -3900.9394   -3423.1212   -3900.9394            0    3266.1188    17.452086    20.556252    21.291504    7638.3158    3898.7418    2282.1641    3617.4504    -742.6012   -673.09699    1161.8523   -3059.2853 
  770000    259.21069   -3878.2915   -3434.0133   -3878.2915            0    4932.2162    17.469025    20.576204    21.312169    7660.5785     5833.744      3571.56    5391.3447    872.47384    468.81152   -51.297775   -2882.9778 
  771000    259.82636   -3865.3786   -3420.0451   -3865.3786            0    3290.1663     17.41767    20.515714    21.249516    7593.2158    3741.5085    1815.9446    4313.0457    150.05805    361.39137   -279.57451   -3055.6945 
  772000    273.99055   -3835.8478   -3366.2373   -3835.8478            0    6117.8781    17.307748    20.386242    21.115413     7450.361    7353.7587    7114.2845     3885.591   -647.69953   -424.63214    180.59168    -2701.494 
  773000    247.16062   -3860.4839    -3436.859   -3860.4839            0    2307.5696    17.432473     20.53315    21.267576    7612.5926    1259.0904    4283.3889    1380.2295    1227.1704   -371.19459   -536.90211   -3180.6684 
  774000    273.57529   -3805.1747    -3336.276   -3805.1747            0    4342.8347    17.432111    20.532724    21.267135    7612.1183    6431.5237    3960.8071    2636.1731   -1537.8669    1148.2902    203.77656   -2854.1565 
  775000    264.89926   -3856.1624   -3402.1341   -3856.1624            0    2999.5631    17.447865     20.55128    21.286354     7632.775    4961.8322    3222.8937    813.96334    792.52966    488.28831    867.39368   -3068.2342 
  776000     284.3552   -3843.2213   -3355.8462   -3843.2213            0    3884.8769    17.341845    20.426403    21.157011      7494.48    4484.6809    4435.0453    2734.9046    129.14959   -1245.8492    1930.5737   -2931.2319 
  777000    273.72149   -3833.2297   -3364.0804   -3833.2297            0    4781.8753     17.33526    20.418646    21.148977    7485.9456    4286.8709    5486.4955    4572.2595   -1025.3708   -1235.3623   -375.78272   -2842.0199 
  778000    261.18919   -3877.9786   -3430.3093   -3877.9786            0    4290.2658    17.476625    20.585156    21.321442    7670.5819    4583.1662    4569.8186    3717.8126    520.22398    267.76094    305.93801   -2950.3677 
  779000    253.45681   -3883.4238   -3449.0075   -3883.4238            0    3686.7686    17.416286    20.514084    21.247828    7591.4057    4292.2558    4798.6884    1969.3616    584.61656    782.49618    297.28602   -3040.8348 
  780000    258.78317   -3837.4416   -3393.8961   -3837.4416            0    4039.1012    17.365542    20.454315    21.185921    7525.2451    2909.4822    3802.0553    5405.7662    713.73192   -873.42672   -392.43701   -2950.6129 
  781000    259.38437   -3823.9812   -3379.4053   -3823.9812            0    3029.5098    17.398034    20.492586    21.225561    7567.5646    2844.3642    3586.9931    2657.1723   -446.64229   -1391.3934    557.45408   -3045.0529 
  782000    266.69441   -3864.8574   -3407.7524   -3864.8574            0    3985.1492     17.41542    20.513064    21.246771    7590.2736    5485.6335    2986.8903    3482.9238   -1440.3418    1194.7641   -457.56785   -2966.6109 
  783000    266.55733   -3872.2645   -3415.3943   -3872.2645            0    4345.6949    17.410291    20.507023    21.240514    7583.5694    2641.2479    6186.4496    4209.3871   -1562.9877    -26.42124    11.027067   -2934.7667 
  784000    258.39058    -3905.363   -3462.4904    -3905.363            0    5712.1002    17.321815     20.40281    21.132574     7468.541     8171.738    2519.6129    6444.9498   -562.59524   -87.420343   -336.91813   -2840.3227 
  785000    253.36648    -3891.352   -3457.0905    -3891.352            0    3282.9972    17.455673    20.560477    21.295881    7643.0272    2886.3324    3055.8949    3906.7643    800.67025    22.230605    464.83243   -3091.1489 
  786000    247.07856   -3862.7318   -3439.2476   -3862.7318            0    2774.9874     17.52046    20.636787     21.37492    7728.4442    3507.8517    2111.1829    2705.9277     366.6901   -548.83644   -145.13814   -3126.4748 
  787000    261.14913    -3855.044   -3407.4433    -3855.044            0    3065.8986    17.452277    20.556478    21.291738    7638.5674    3458.4632     1793.309    3945.9234   -508.11446   -20.102656    119.74491   -3065.9002 
  788000    272.48783   -3879.9565   -3412.9217   -3879.9565            0    4669.5008    17.344008    20.428951     21.15965    7497.2847    2940.1216    6178.7307    4889.6503   -1163.5405    691.21311   -1455.6673   -2902.3575 
  789000     262.1298   -3856.2743   -3406.9928   -3856.2743            0    4311.4162    17.308751    20.387422    21.116635    7451.6553    5308.7732    3507.0543     4118.421    1064.2858   -69.291093     524.6322   -2938.4507 
  790000    258.05889   -3885.5208   -3443.2167   -3885.5208            0    3230.3373    17.502829    20.616021    21.353411    7705.1368    3408.6622     2693.837    3588.5128    819.95395   -567.30803    334.59209   -3080.2188 
  791000    256.61312   -3863.8729   -3424.0468   -3863.8729            0    4644.2372    17.427513    20.527308    21.261525    7606.0964    4564.9329    5761.0453    3606.7334   -488.70031   -586.66892    812.95406   -2908.8749 
  792000     262.9496   -3883.6735   -3432.9869   -3883.6735            0    3987.1155    17.476081    20.584515    21.320778    7669.8658      5674.07    4439.2237    1848.0529   -922.26988   -563.41336    1299.1267   -2986.9996 
  793000    243.66716   -3810.7655   -3393.1283   -3810.7655            0    4734.5263    17.441993    20.544364    21.279191    7625.0714    4358.3443    4741.4807    5103.7539    765.43296    -496.1878   -1767.0192   -2866.6308 
  794000    270.63669   -3869.9765   -3406.1145   -3869.9765            0    3400.4583    17.397984    20.492527      21.2255    7567.4987    2258.6015    5936.0097    2006.7638    1855.1826    -416.8966    396.80082   -3030.8256 
  795000    251.43647   -3892.5946   -3461.6411   -3892.5946            0    3443.3157    17.396482    20.490758    21.223668    7565.5393     3764.531     4702.576    1862.8402    486.33184    836.22828   -1216.3175   -3081.7207 
  796000    269.76005   -3882.6001   -3420.2406   -3882.6001            0    4587.8979    17.441484    20.543764    21.278569    7624.4032     5234.185    2882.1827    5647.3258    1077.5281   -522.53032   -915.14905   -2910.0934 
  797000    259.41008   -3884.7153   -3440.0953   -3884.7153            0    4763.8372    17.385017    20.477253     21.20968    7550.5908    4403.3891     5685.469    4202.6534    1549.4786    199.77158    1235.4084   -2915.5128 
  798000    263.89354   -3838.8121   -3386.5076   -3838.8121            0    5444.9189    17.400677      20.4957    21.228786    7571.0142    7151.4896    3582.9209    5600.3462    1088.0944    178.77863     790.2582   -2785.3043 
  799000    267.24159   -3829.8018   -3371.7588   -3829.8018            0     4911.421    17.433747    20.534651    21.269131    7614.2618    6446.8795    4479.7522    3807.6314    218.08771    -36.47325    669.70051   -2826.3642 
  800000    256.93073   -3862.1327   -3421.7622   -3862.1327            0    3031.7281     17.53234     20.65078    21.389413    7744.1759    1816.0261    3771.5245    3507.6337   -921.56559    1324.9932   -414.29424   -3079.3562 
  801000    258.75891   -3836.9685   -3393.4646   -3836.9685            0    4137.2386     17.44772     20.55111    21.286178    7632.5852    3700.9929    4502.8384    4207.8845   -639.75573    192.21359    -584.3527   -2932.9344 
  802000    264.45905   -3839.4687   -3386.1949   -3839.4687            0    3160.1004    17.491806    20.603037    21.339962    7690.5875    4264.8023    3010.9975    2204.5014   -416.04884    1263.8387    69.375306   -3031.7602 
  803000    258.64265   -3840.7145   -3397.4098   -3840.7145            0     4081.606    17.372764    20.462822    21.194732    7534.6378    3568.7356    3687.7605    4988.3217   -1545.2435   -1370.0115   -102.04587   -2948.9027 
  804000    273.35151   -3849.7296   -3381.2145   -3849.7296            0     3955.622    17.455955    20.560809    21.296224    7643.3973    2099.1019    4346.8907    5420.8732    320.30821   -1821.6102   -721.13869   -2940.2769 
  805000    264.39508   -3862.2445   -3409.0804   -3862.2445            0    5544.9747    17.439723     20.54169    21.276421    7622.0943    4167.8362     7310.808    5156.2801    1241.2169   -187.23597    339.65822   -2792.6986 
  806000    274.31816   -3853.6719   -3383.4999   -3853.6719            0    2094.2369    17.573003    20.698676    21.439023    7798.1852    2907.9739    860.16016    2514.5766   -1020.0583    77.836191    630.95862   -3145.3255 
  807000    268.57992   -3872.3238    -3411.987   -3872.3238            0    4204.0077    17.499107    20.611636    21.348869    7700.2217    4869.7882    2628.6308    5113.6042   -628.24365    231.26133   -2344.4347   -2939.8776 
  808000    262.31173    -3859.866   -3410.2727    -3859.866            0    2712.2024    17.495742    20.607673    21.344764    7695.7805    1988.2533    2949.5118     3198.842   -449.19182    167.38588    -660.3464   -3105.8685 
  809000    270.37581   -3871.7705   -3408.3556   -3871.7705            0    2757.9945    17.552226    20.674204    21.413675    7770.5579    3325.6765    1957.8197    2990.4874   -704.53122    225.06843   -204.72285   -3095.8042 
  810000     249.1072   -3860.9207   -3433.9595   -3860.9207            0    2605.5337    17.506333    20.620148    21.357686    7709.7655    1717.6374     2420.052    3678.9117    334.26069   -1176.1275   -185.97776   -3140.9958 
  811000    253.80247    -3843.244   -3408.2353    -3843.244            0     2945.029    17.448656    20.552212     21.28732    7633.8133    2314.6468    3237.0854     3283.355    2942.7558     535.1241    1977.1369   -3080.3613 
  812000    262.04279   -3842.6394    -3393.507   -3842.6394            0    3419.8429    17.474194    20.582292    21.318475    7667.3806    4075.1162    4816.2796    1368.1328   -53.545202    1077.2354    647.61395   -3011.0972 
  813000    281.74477   -3832.5472   -3349.6463   -3832.5472            0    4689.2108     17.39111     20.48443    21.217114    7558.5326    3824.4623    6380.8516    3862.3185     588.9593   -102.73661   -380.21014   -2832.7384 
  814000    274.50591   -3860.6718   -3390.1781   -3860.6718            0    3512.5969    17.381362    20.472948    21.205221    7545.8293    2318.7722    4159.8568    4059.1616     16.04415    111.95752   -673.71628   -3003.6232 
  815000    253.76317   -3881.9496   -3447.0082   -3881.9496            0    3330.2055    17.515154    20.630538    21.368447    7721.4253     3433.638    4467.2889    2089.6897   -1850.6975    896.86108    666.45301   -3071.9968 
  816000    273.83099   -3851.9019    -3382.565   -3851.9019            0    3536.0778    17.422214    20.521067    21.255061    7599.1608    2675.7564    2501.0448    5431.4322     675.1073   -1030.9577     528.6778   -2990.6757 
  817000    257.92142   -3879.2594   -3437.1909   -3879.2594            0    2423.7764    17.403251    20.498731    21.231926    7574.3742    1976.4282    1953.0168    3341.8843     141.9581   -1098.8402   -144.89915   -3169.4497 
  818000    260.37169   -3858.4275   -3412.1593   -3858.4275            0    3473.8599     17.44866    20.552217    21.287325    7633.8189     4335.673    4368.4668    1717.4398    463.26601    414.91076     1171.694   -3025.4096 
  819000    258.84634   -3890.7083   -3447.0545   -3890.7083            0    3850.4939    17.383724     20.47573    21.208102    7548.9062    5033.3501     2222.664    4295.4675     82.87863    326.11417   -1342.2359   -3023.1419 
  820000     269.3596   -3862.8768   -3401.2037   -3862.8768            0    1888.9306    17.492966    20.604403    21.341377    7692.1175    2920.8361    2325.1331    420.82256   -1322.6368   -814.55985    71.639475   -3189.3003 
  821000     248.1639   -3856.0227   -3430.6783   -3856.0227            0    4563.0489    17.490549    20.601557    21.338429    7688.9306    6769.5254    3131.9359    3787.6852   -1169.6594   -721.62832    1035.9729   -2919.0001 
  822000    273.43793   -3812.6386   -3343.9753   -3812.6386            0    4443.9077    17.475235    20.583519    21.319746    7668.7519    4548.4811    5206.5597    3576.6823    106.76169    535.11277    1198.0994   -2846.9648 
  823000    252.39463   -3862.0141   -3429.4184   -3862.0141            0    5464.0354    17.476071    20.584503    21.320766    7669.8519    6051.2056    4412.8795    5928.0211     1197.195   -756.88346   -787.93765   -2818.2282 
  824000    271.42763    -3873.997   -3408.7793    -3873.997            0    3913.9537    17.496893    20.609029    21.346169    7697.2997     4848.127    2528.1884    4365.5457    1032.5934    1415.8169    270.03109   -2969.4098 
  825000    253.24559   -3842.2439   -3408.1896   -3842.2439            0    4701.7731    17.438959     20.54079    21.275489    7621.0923    4794.8202    3498.2542    5812.2449    1076.1723   -919.96977   -1073.9084   -2885.6072 
  826000    255.25926   -3852.9147   -3415.4091   -3852.9147            0    2439.5289    17.461235    20.567029    21.302666    7650.3356    3954.4963    1293.1773    2070.9131   -365.59984    842.90707    1670.1629   -3143.2252 
  827000    253.50124   -3878.8004    -3444.308   -3878.8004            0    3894.3198    17.414064    20.511467    21.245117    7588.5009    3342.0383    4817.4582    3523.4628    1739.2211   -1248.0713    314.97352   -3013.3217 
  828000    271.81145   -3829.6011   -3363.7255   -3829.6011            0    2186.7381    17.430581    20.530922    21.265268    7610.1139    2022.7336    2439.5472    2097.9334   -105.00633    275.21976    418.66588   -3121.0289 
  829000    262.17962   -3895.6222   -3446.2553   -3895.6222            0    5178.4812    17.297554    20.374233    21.102975    7437.2033    5379.8612    5422.2762    4733.3064    1741.1117   -360.18112     774.3708   -2884.5766 
  830000    272.60665   -3840.9287   -3373.6902   -3840.9287            0    4025.6558    17.371642      20.4615    21.193363    7533.1781    3903.9705     4707.881    3465.1158    915.18135     2771.872      425.809   -2931.4169 
  831000      256.674    -3857.106   -3417.1755    -3857.106            0    3137.4952    17.490359    20.601333    21.338197    7688.6796    716.84912    3265.4162    5430.2203    -1123.911    740.20893    558.37904   -3065.3635 
  832000    256.19771   -3866.5912   -3427.4771   -3866.5912            0    3341.3994    17.380051    20.471404    21.203621    7544.1221    2887.3826    3744.3075     3392.508   -1326.1527    166.24417    809.23761   -3059.8454 
  833000    260.02086   -3876.7472   -3431.0804   -3876.7472            0    3157.8319    17.444517    20.547337    21.282271    7628.3827    1557.5092    5383.5198    2532.4667   -1105.9577    359.03846    649.24995   -3079.7648 
  834000    276.50856   -3851.3464   -3377.4202   -3851.3464            0    3792.0449    17.444002     20.54673    21.281642    7627.7067    4772.5489    3557.0442    3046.5417    656.42855    281.77374   -196.70424   -2955.5845 
  835000    263.73789   -3852.4169   -3400.3792   -3852.4169            0     4763.987    17.432158    20.532779    21.267191    7612.1794    3523.0667    4228.5416    6540.3528   -162.69442    -30.16992    1676.2017   -2871.5013 
  836000    262.11439   -3841.5804   -3392.3253   -3841.5804            0    3936.9873     17.50502    20.618601    21.356083    7708.0299    2850.7358    3985.8391    4974.3872    548.67305    686.59218    974.15147    -2949.754 
  837000    270.54828   -3899.4104   -3435.6999   -3899.4104            0    4462.4144     17.37363    20.463842    21.195789    7535.7647    4104.3103    4467.5741     4815.359    688.69089   -531.10044    1528.5786   -2945.2743 
  838000    277.67206   -3847.2826   -3371.3622   -3847.2826            0    3364.7224    17.410027    20.506712    21.240193     7583.225     3450.362    3112.5734    3531.2319   -1488.4432   -429.36492    1594.7204   -2999.2456 
  839000    265.70147   -3910.2633     -3454.86   -3910.2633            0    3412.0449    17.363172    20.451524     21.18303    7522.1643    912.30369    4961.6712    4362.1599    555.72546    907.83949   -764.17274   -3080.5483 
  840000    269.69111   -3878.1114     -3415.87   -3878.1114            0    3641.0549     17.42646    20.526068    21.260241     7604.718     2913.464    4900.8974    3108.8033   -413.32241    847.91262   -223.19604   -3012.0515 
  841000    243.60271   -3866.5587   -3449.0319   -3866.5587            0    2497.4549    17.461559     20.56741    21.303061     7650.761    3444.3341    1602.1045    2445.9262    1658.5117    445.41183   -300.15411   -3170.3697 
  842000    271.54634   -3877.2918   -3411.8707   -3877.2918            0    3381.9299    17.400302    20.495258    21.228328    7570.5245    3734.8688    4098.9445    2311.9763   -135.99374    -574.3164   -220.72263   -3038.4774 
  843000    256.53054   -3884.0856    -3444.401   -3884.0856            0    3165.8862    17.405554    20.501443    21.234735    7577.3808    2757.6815    3353.2164    3386.7608     579.6261    1161.6949     777.6165   -3094.5442 
  844000    252.74936   -3865.1649   -3431.9611   -3865.1649            0     4252.119    17.440622    20.542749    21.277518    7623.2732    5710.1203    4430.4863    2615.7504   -1211.1061    36.377399    1195.6154   -2959.2206 
  845000    248.37387     -3869.64   -3443.9357     -3869.64            0    2822.9998    17.426347    20.525934    21.260102    7604.5695    3680.0581     2442.484    2346.4572   -1329.2838    459.10781   -120.63525   -3130.8513 
  846000    267.26331   -3867.7732   -3409.6931   -3867.7732            0    2466.4351     17.44839    20.551899    21.286996    7633.4648    3673.9141    405.71195    3319.6793    335.17467   -250.82454    522.07943   -3135.1141 
  847000    259.56463    -3873.607   -3428.7222    -3873.607            0    3840.4848     17.47306    20.580957    21.317093    7665.8886    3196.3142    3356.3542    4968.7859   -128.90652   -100.96934    1238.2928   -2999.3593 
  848000    247.20756   -3869.2245   -3445.5192   -3869.2245            0    3906.9671     17.43323    20.534043      21.2685    7613.5851    1911.2268     3968.072    5841.6024   -365.67662    -336.3154   -789.10285   -3011.7039 
  849000    260.23955   -3851.3623   -3405.3206   -3851.3623            0     3612.708    17.471989    20.579696    21.315786    7664.4795         1141     5136.484    4560.6399   -1186.1608   -468.11248   -500.59868   -3001.4973 
  850000    245.55555   -3856.9304   -3436.0566   -3856.9304            0    3648.7852    17.488597    20.599257    21.336047    7686.3554    1009.3922    4391.8181    5545.1452    186.10122   -994.51056   -29.642343   -3027.0365 
  851000    256.64014   -3874.2366   -3434.3642   -3874.2366            0    3735.4039    17.390953    20.484245    21.216922    7558.3276     4909.767    2004.3388     4292.106    2840.9467   -138.22247   -668.71375   -3022.6089 
  852000    270.71209   -3817.3702   -3353.3789   -3817.3702            0    4289.1143    17.372381     20.46237    21.194264    7534.1386    5167.6078    4311.0249    3388.7103    1135.0647   -747.76071    23.034264    -2882.101 
  853000    252.08573   -3807.3012   -3375.2349   -3807.3012            0    4203.2624    17.334561    20.417823    21.148124    7485.0397    4992.0965    3447.4052    4170.2854     721.2626   -516.55168   -573.88816   -2916.3999 
  854000    259.63411   -3848.3022   -3403.2982   -3848.3022            0    4674.2214    17.392019    20.485501    21.218223    7559.7182     5422.459    4356.0152    4244.1899    368.83849    949.02267   -904.86773   -2887.9619 
  855000    267.65942   -3809.3484   -3350.5893   -3809.3484            0    2682.7835    17.431676    20.532212    21.266604    7611.5491    2428.8936    3037.8351    2581.6218    1316.9105   -458.53397   -667.86661   -3052.7826 
  856000    262.49548   -3863.7352   -3413.8269   -3863.7352            0    4785.5289    17.419399    20.517751    21.251626    7595.4775    3969.5667    5935.0384    4451.9815   -625.11626    1141.4975   -1263.0639   -2883.7232 
  857000    261.05803   -3883.3728   -3435.9283   -3883.3728            0    1535.5133    17.540546    20.660447    21.399426     7755.056    643.16866    3169.0026    794.36853   -931.95449   -1290.9172   -765.36634   -3262.2624 
  858000    264.81575   -3852.8403   -3398.9552   -3852.8403            0    3084.7526    17.496292    20.608321    21.345435    7696.5061    3089.2602    3965.9986     2198.999    1188.0459    836.71308    1399.4213   -3052.7052 
  859000    269.76758   -3897.1403   -3434.7679   -3897.1403            0    3426.9181    17.399304    20.494082     21.22711    7569.2216    2843.4278    4931.1378    2506.1886   -65.248572    970.76052   -146.61299   -3056.4727 
  860000    252.48969   -3837.2415   -3404.4828   -3837.2415            0    4968.1784    17.345657    20.430893    21.161661    7499.4235     3760.602    4797.3288    6346.6045     1766.029    477.14158    1040.9188   -2861.1062 
  861000    269.06548   -3876.3629   -3415.1939   -3876.3629            0    3626.6674    17.450576    20.554474    21.289662    7636.3339    4697.0049     2581.201    3601.7963   -245.42409   -988.09988   -107.13711   -3011.2989 
  862000    266.57808   -3874.0205   -3417.1148   -3874.0205            0    1810.7928    17.428287     20.52822    21.262469      7607.11    2764.2936    208.63802    2459.4467    -1225.001    137.04019   -828.73177    -3216.222 
  863000    262.67899   -3875.5697   -3425.3469   -3875.5697            0    3305.4684    17.453893     20.55838    21.293709    7640.6888    2926.9345    3279.0671    3710.4035   -1059.0797   -922.56154   -1158.1118   -3057.0132 
  864000    281.85061   -3892.3437   -3409.2614   -3892.3437            0    3771.5375    17.579711    20.706577    21.447206    7807.1181    1937.8403    3990.8177    5385.9545     949.3733    1025.1963    906.95781   -2979.8387 
  865000       265.65   -3853.9241   -3398.6091   -3853.9241            0    3419.9763    17.458672    20.564009    21.299539    7646.9664    4771.0383     1351.256    4137.6346   -123.57893    637.85939   -432.76049   -3017.2026 
  866000    252.90777   -3884.9666   -3451.4913   -3884.9666            0    3955.5955    17.444961     20.54786    21.282812     7628.965    4416.9186    2116.6717     5333.196    2506.4304   -2547.8125    322.53094   -3011.3893 
  867000    247.11807   -3910.8432   -3487.2913   -3910.8432            0    4540.8698    17.493054    20.604508    21.341486    7692.2349    3573.7984     5648.706    4400.1049    176.91871   -26.714198    525.51587   -2977.8813 
  868000    264.53243   -3923.8646    -3470.465   -3923.8646            0    5562.7622    17.402672    20.498049     21.23122    7573.6185    4584.8221    5983.1303    6120.3342    1330.1859   -1093.2386    222.21535   -2856.0387 
  869000    262.87958    -3876.397   -3425.8304    -3876.397            0    3925.0996    17.514004    20.629184    21.367044    7719.9047    3358.5933    4217.0764    4199.6291   -1592.5683    909.85716    437.90059   -2983.9157 
  870000    248.99917    -3880.953   -3454.1769    -3880.953            0    3521.1738    17.441139    20.543358    21.278149    7623.9515    5327.5377    2764.1951    2471.7887   -207.07642   -942.16219   -642.91482   -3062.6663 
  871000    262.02591   -3874.2072   -3425.1037   -3874.2072            0    4383.4478    17.368159    20.457397    21.189113    7528.6469    3346.7967    4985.6076     4817.939   -1477.5854    1587.7911   -30.223275   -2943.8117 
  872000    271.59969   -3859.1764   -3393.6638   -3859.1764            0    3311.7907    17.463575    20.569784     21.30552    7653.4108    4642.4834    3095.4729    2197.4157    581.78411    347.94845    524.02999   -3024.0112 
  873000    248.75186   -3875.6442    -3449.292   -3875.6442            0    4373.5994    17.407237    20.503426    21.236789    7579.5802    5435.0009    2971.7797    4714.0176    1325.7331   -848.64948   -1352.3161   -2965.8326 
  874000    249.18479   -3813.1044   -3386.0102   -3813.1044            0    5206.9514    17.422198    20.521047     21.25504     7599.139    5074.9847    5423.0746    5122.7947    601.69804    176.97463   -374.13541   -2808.9464 
  875000    276.02254    -3827.665   -3354.5718    -3827.665            0    3454.0919    17.553569    20.675785    21.415313    7772.3411    2913.9245    3372.9918    4075.3594   -964.45702   -373.13307    736.20816   -2963.0449 
  876000    262.59142   -3860.6893   -3410.6166   -3860.6893            0     2766.946    17.488885    20.599597    21.336399    7686.7361     1733.386    2940.0324    3627.4197    413.33375    71.592388    542.33053   -3100.4332 
  877000    260.77286   -3850.2627   -3403.3069   -3850.2627            0    5174.9348    17.418748    20.516984    21.250832    7594.6263    5693.4959    5752.4182    4078.8903   -59.140464    2167.4901    1302.1077    -2830.132 
  878000     270.5047   -3869.0288   -3405.3931   -3869.0288            0    5126.1429    17.446805    20.550032    21.285062    7631.3844    5464.6443    6320.8945    3592.8899   -6.1841299     51.11128   -772.40468   -2834.8743 
  879000    266.21455   -3839.0643   -3382.7817   -3839.0643            0    6170.6441    17.511918    20.626726    21.364499    7717.1465    5421.7546    7253.2348     5836.943   -574.88085    476.14667   -748.08832   -2688.2963 
  880000    259.61503   -3891.3104   -3446.3392   -3891.3104            0    4328.2677     17.38332    20.475255     21.20761    7548.3802    5433.4651    4088.7794    3462.5587   -293.88812   -151.22558   -765.48771   -2969.8601 
  881000    251.22029   -3892.9696   -3462.3866   -3892.9696            0    4050.8498    17.378475    20.469548    21.201699    7542.0701     2955.049    4597.9433    4599.5569   -303.64138    -942.9309   -1603.1752     -3016.82 
  882000    253.62529   -3821.0122   -3386.3072   -3821.0122            0    3448.0994    17.491504    20.602681    21.339593    7690.1891    3955.6851    2047.1171     4341.496    285.83492    1299.0702   -619.29472   -2999.5907 
  883000    241.14258   -3827.1101   -3413.7999   -3827.1101            0    3819.4103    17.467034    20.573859    21.309741      7657.96    4488.7664    4379.0093    2590.4552   -18.782398   -2338.3748   -943.10438   -2987.2348 
  884000    254.70454   -3862.9466   -3426.3917   -3862.9466            0    4175.4123    17.436044    20.537356    21.271933    7617.2715    3678.7903    4337.1176     4510.329    -242.6424    1625.3414   -322.70094   -2962.5448 
  885000    257.39269   -3890.5167   -3449.3544   -3890.5167            0    3805.2824    17.467061    20.573891    21.309774    7657.9955    5782.3581    3243.7752    2389.7139   -730.29539     149.5326    115.64825   -3024.3652 
  886000    259.25235   -3849.1749   -3404.8253   -3849.1749            0    4198.4522     17.46381    20.570062    21.305808    7653.7207    4233.0193    4530.4081    3831.9292    -112.2122    344.79232   -618.96271    -2936.187 
  887000    250.07572   -3843.9973   -3415.3761   -3843.9973            0    3506.0208    17.443425     20.54605    21.280938    7626.9494    2357.9289    4463.5798    3696.5537    1324.8297   -189.40377   -1322.0115   -3025.3971 
  888000    272.87837   -3864.9535   -3397.2493   -3864.9535            0    4668.0581    17.446748    20.549964    21.284991    7631.3088    4070.2061    4766.9962    5166.9719    379.72628   -502.27258   -1447.7757   -2877.7186 
  889000    252.58996   -3907.9235   -3474.9929   -3907.9235            0    1236.7966    17.467687    20.574628    21.310538    7658.8193    281.33098    2145.7563    1283.3025   -680.74858   -623.25757   -561.77185   -3336.8476 
  890000    257.91056   -3864.5909    -3422.541   -3864.5909            0    4985.6997    17.461155    20.566934    21.302568    7650.2294    4444.8849    6388.4685    4123.7457   -976.15989   -169.03291   -540.19329   -2866.2828 
  891000    251.51948   -3872.7095   -3441.6137   -3872.7095            0     2729.781    17.435887    20.537172    21.271741    7617.0661    3220.6156    2015.5868    2953.1406    339.04844    1069.5604   -176.81303   -3138.3703 
  892000    264.22518   -3899.0941   -3446.2212   -3899.0941            0    4501.6952    17.451893    20.556025    21.291269     7638.063     5037.501     4026.464    4441.1205   -159.04345   -758.41017    1150.8909   -2944.7625 
  893000     259.3059   -3865.5911   -3421.1496   -3865.5911            0     3690.034    17.498954    20.611456    21.348683    7700.0197    3859.9166    4038.9853    3171.2001   -729.08736    1349.2898   -378.54188   -3006.7703 
  894000    243.49988   -3842.8618   -3425.5113   -3842.8618            0    3775.6178    17.481288    20.590648     21.32713    7676.7229    4336.1912    3286.6056    3704.0565   -349.37519   -284.38545    292.57478    -3002.804 
  895000    266.06906   -3847.3979   -3391.3646   -3847.3979            0    3290.9908    17.507805    20.621881    21.359481    7711.7097    5460.6462    2865.6124    1546.7138    980.51778     1192.723    670.23884   -3021.2355 
  896000    266.76413   -3868.1436    -3410.919   -3868.1436            0    4501.0577    17.417389    20.515383    21.249174    7592.8483    3480.9102    3936.2464    6086.0165   -411.03163   -1981.1532    191.71491   -2912.4993 
  897000    259.33885   -3887.0114   -3442.5135   -3887.0114            0    3023.4124    17.452156    20.556334    21.291589    7638.4079    1458.6093    5160.8233    2450.8046    470.45382   -9.0480682    1387.6219   -3105.7104 
  898000    253.80627    -3899.188   -3464.1727    -3899.188            0    4021.4938     17.51216    20.627011    21.364794    7717.4659    2316.8934    4514.3842    5233.2038       329.35    129.82938    481.15259   -3011.5482 
  899000    279.82894   -3871.5812    -3391.964   -3871.5812            0    3476.9916    17.563217     20.68715    21.427084    7785.1643     3359.173    3384.6954    3687.1063    472.50344   -367.20436    1437.3423   -2997.1911 
  900000    259.20209   -3886.0556   -3441.7921   -3886.0556            0    3205.5143     17.60008     20.73057    21.472057    7834.2879    3724.7025    3831.7836    2060.0568   -321.45657    -1079.499   -344.02919   -3075.5458 
  901000    268.86233    -3876.107   -3415.2862    -3876.107            0    2910.7589    17.575757    20.701921    21.442383    7801.8525    3442.1535    2074.6859    3215.4373    61.700556    712.05339   -754.34833   -3084.0941 
  902000    256.68664   -3892.7822   -3452.8301   -3892.7822            0    5338.4933    17.442869    20.545396    21.280259    7626.2204    5646.8978    5365.2176    5003.3647    86.626035    102.77974   -435.26453   -2859.0796 
  903000    270.52162   -3875.9698    -3412.305   -3875.9698            0    4068.2267    17.405648    20.501554     21.23485    7577.5043    2426.2354    4647.0325    5131.4124    562.29988   -174.32636    1790.3122   -2962.7248 
  904000    259.64384   -3875.6191   -3430.5985   -3875.6191            0    4189.7976    17.418158    20.516289    21.250112    7593.8544     4637.115    1944.9952    5987.2825    784.52718    1395.7324   -633.75035   -2966.5843 
  905000    259.72163   -3893.3286   -3448.1746   -3893.3286            0    3432.0365    17.514994    20.630349    21.368252    7721.2137    2996.3595    4072.1594    3227.5906    -623.6554    550.79226   -178.01869   -3061.7068 
  906000    242.01628   -3900.3788   -3485.5711   -3900.3788            0    3052.6299    17.538181    20.657661     21.39654    7751.9192    5226.7534    1519.1316    2412.0046    1984.7552    948.62352    147.54777   -3140.4598 
  907000    252.04535    -3860.852   -3428.8549    -3860.852            0    4574.3037    17.427158     20.52689    21.261092    7605.6319    3928.7581    4011.9656    5782.1873   -82.735835   -465.31709    181.77519   -2921.4716 
  908000    266.27415   -3885.9885   -3429.6037   -3885.9885            0    6038.0288    17.416689    20.514559     21.24832    7591.9333    6887.5705    4218.2294    7008.2865    780.65207    347.68461   -188.07523   -2761.0698 
  909000    253.74262   -3862.2221   -3427.3159   -3862.2221            0     3498.185     17.43769    20.539295    21.273941    7619.4293    3040.5774    4028.6363    3425.3412   -258.70965   -202.17949   -1516.1073   -3038.5921 
  910000    272.86959   -3850.4442    -3382.755   -3850.4442            0    4191.5707    17.402573    20.497932    21.231098    7573.4884    4253.5995    2797.9479    5523.1649    628.22386    236.60157    589.03264   -2919.7895 
  911000    248.03108   -3868.3247   -3443.2079   -3868.3247            0    2967.9718    17.443857    20.546559    21.281465    7627.5164    3249.9668    2705.8307     2948.118   -995.75321     -413.993   -612.60349   -3113.0522 
  912000    247.90164    -3860.796   -3435.9011    -3860.796            0    4287.1007    17.488437    20.599068    21.335852    7686.1446    4817.9346    4242.5889    3800.7785   -387.98638   -359.45113    500.98651   -2955.3405 
  913000    265.56804   -3885.0066    -3429.832   -3885.0066            0    4879.3989    17.374483    20.464845    21.196828    7536.8735    5256.8865    4429.6233     4951.687    373.17625   -819.10535    3.7653295   -2893.5004 
  914000    268.57834   -3900.8882   -3440.5541   -3900.8882            0     4467.428    17.441554    20.543847    21.278656     7624.496    3169.1561    3338.3151    6894.8128   -68.472495    224.40087   -2392.5326   -2943.7964 
  915000    256.21769   -3864.5112   -3425.3629   -3864.5112            0    4235.0756    17.417072     20.51501    21.248787     7592.434    3994.3299    4458.3391    4252.5579   -1430.6873      450.093   -469.24448    -2956.422 
  916000    254.07054   -3847.4811   -3412.0129   -3847.4811            0    4765.5144    17.400242    20.495187    21.228254    7570.4456     7113.182    2796.3607    4387.0006   -885.11677   -1664.6286    611.75486   -2885.8659 
  917000    260.44535   -3904.5168   -3458.1224   -3904.5168            0    4941.0339    17.259997    20.329996    21.057156    7388.8647    4275.7875    6118.3503    4428.9638    146.60488   -175.46102    530.09131   -2925.6814 
  918000    275.83608   -3868.1719   -3395.3983   -3868.1719            0    2493.1068    17.431633    20.532161    21.266551     7611.492    853.65542    6042.7009    582.96403    -174.8397     320.4568   -743.15521    -3118.649 
  919000    262.27874   -3837.8899   -3388.3532   -3837.8899            0    2873.8324    17.380152    20.471523    21.203745    7544.2537    3683.3945    684.34204    4253.7606   -815.47207    1290.4688   -1344.4999   -3072.1592 
  920000    271.33951   -3854.9211   -3389.8544   -3854.9211            0    4027.8344    17.350392     20.43647    21.167437    7505.5659     2784.356    4297.4303    5001.7169    17.860845    1298.0807   -311.44035   -2948.9637 
  921000    251.91924   -3837.8796   -3406.0987   -3837.8796            0    2890.1989    17.411136    20.508018    21.241545    7584.6736    1495.3945    4016.8684    3158.3338    52.327421    651.21523    62.457133   -3086.4002 
  922000    261.92996   -3857.4217   -3408.4828   -3857.4217            0    3841.2713    17.506065    20.619832    21.357359    7709.4111    3987.1357     6708.802    827.87624   -313.08158    392.28188   -138.36466   -2976.5938 
  923000    264.33399   -3890.1217   -3437.0623   -3890.1217            0    4755.5249    17.393725    20.487511    21.220304    7561.9433    3015.6508    6466.7121    4784.2117   -774.32764    239.59924     512.7346   -2912.6078 
  924000    251.25212   -3879.8766   -3449.2391   -3879.8766            0    2055.9756    17.497798    20.610095    21.347273    7698.4946    3818.7544    811.98931    1537.1832    440.52964    626.60334    1196.6723   -3218.4052 
  925000    258.62265    -3839.091   -3395.8206    -3839.091            0    4633.3602    17.324045    20.405436    21.135294    7471.4255    5699.8017    3173.7444    5026.5346   -428.59057   -424.46893    753.85709   -2890.9554 
  926000    263.63515   -3873.9769   -3422.1153   -3873.9769            0    4666.2114    17.413546    20.510857    21.244486    7587.8243    3527.5218    5501.0008    4970.1115   -56.771205   -159.89614   -46.702527   -2905.7493 
  927000    265.46742   -3838.3255   -3383.3235   -3838.3255            0    3368.3449    17.464701    20.571111    21.306894    7654.8915    1831.2592    5216.3567    3057.4189    360.18969   -943.60336   -789.71556   -3007.2857 
  928000    270.79835   -3858.7673   -3394.6282   -3858.7673            0    5529.6324     17.35128    20.437516    21.168522    7506.7192    6160.4039    5156.4945    5271.9986   -863.18161    1263.4534   -113.50684   -2789.2562 
  929000    254.39538   -3876.0616   -3440.0366   -3876.0616            0    1954.4239    17.573417    20.699163    21.439527    7798.7357    1053.2511     2880.564    1929.4566    181.93789   -349.85881    1068.9763   -3217.7472 
  930000    256.40046   -3884.1635   -3444.7018   -3884.1635            0     3634.694    17.515271    20.630676     21.36859    7721.5802    4067.1643    1922.5804    4914.3372   -372.50185    1943.6116   -1037.8325   -3035.3941 
  931000    259.75028   -3850.4628   -3405.2597   -3850.4628            0    5086.7892    17.395906    20.490079    21.222964    7564.7873    5323.8863    5116.1006    4820.3808    1258.4312   -499.47319    -729.2526   -2844.0614 
  932000    263.88986   -3838.9023   -3386.6041   -3838.9023            0     4628.545    17.389376    20.482388    21.214998    7556.2723    6128.5956    3928.1702    3828.8691    71.899427   -374.35538    1231.2755   -2876.5362 
  933000    246.36274   -3863.7182   -3441.4609   -3863.7182            0    2345.1711    17.466223    20.572904    21.308752    7656.8937    3344.4118    2087.5682    1603.5334    153.39203    32.893378    -802.8347   -3179.5805 
  934000    260.07052   -3862.2422   -3416.4902   -3862.2422            0    4744.6383    17.446324    20.549466    21.284475    7630.7533    5724.1099    3591.9397    4917.8653   -687.39443    151.51369   -449.74822    -2888.475 
  935000    272.28979   -3840.1749   -3373.4795   -3840.1749            0    4581.7418    17.484271    20.594161    21.330769    7680.6531    3145.6232    5735.0303    4864.5717    441.40972   -882.46145   -1197.7693   -2860.2582 
  936000    266.39759   -3858.3579   -3401.7616   -3858.3579            0    3234.9087    17.536786    20.656018    21.394838    7750.0696    2356.8662    2676.9575    4670.9023   -57.189773    1152.4691    188.35887   -3036.1301 
  937000    269.83727   -3903.3573   -3440.8655   -3903.3573            0    2915.3333    17.470371     20.57779    21.313812    7662.3503    2319.3503    2194.3927    4232.2571   -31.936375   -586.24073   -99.356281   -3115.0842 
  938000    264.69079   -3831.0091   -3377.3382   -3831.0091            0    3340.4206    17.513586    20.628691    21.366534    7719.3516    2280.0495    4450.4389    3290.7733    -209.5131    135.97821   -833.23455   -3001.2776 
  939000    253.57078     -3892.93   -3458.3183     -3892.93            0    4682.5077    17.523749    20.640662    21.378933    7732.7983    3668.1445    4715.4821    5663.8967      1160.94   -1622.9569    344.45607   -2930.2488 
  940000    274.69099   -3846.3293   -3375.5183   -3846.3293            0    3901.8158    17.522233    20.638877    21.377084    7730.7918    4961.7379     4143.392    2600.3175   -549.00656    461.58804    592.89982   -2935.6055 
  941000    268.36529   -3880.7345   -3420.7656   -3880.7345            0    3886.3321    17.462864    20.568947    21.304654    7652.4769    5406.7978    3492.2734     2759.925   -425.69689   -1861.0598    6.4126078   -2987.0372 
  942000    257.74232   -3848.3527   -3406.5912   -3848.3527            0    3267.2475    17.400489    20.495477    21.228556    7570.7679    3825.6988    2117.4916     3858.552   -1866.7562   -196.49756    587.75345   -3045.8483 
  943000    259.83929   -3839.2787   -3393.9231   -3839.2787            0    2888.3235    17.384523    20.476672    21.209078    7549.9481    1878.7477    4407.4995    2378.7231   -917.72707    993.25472    161.44493   -3075.8948 
  944000    285.27409   -3869.3942   -3380.4441   -3869.3942            0    4066.0716    17.471197    20.578762    21.314819    7663.4365    4653.7181     4372.526    3171.9707   -145.75769   -198.22949    556.10435   -2926.0063 
  945000    261.60385    -3865.706   -3417.3259    -3865.706            0    5450.0046    17.442866    20.545392    21.280255    7626.2157    6492.4808    6612.5033    3245.0295   -37.240294   -1609.2183    -666.2657   -2811.1735 
  946000    265.38951   -3843.8736   -3389.0051   -3843.8736            0    2854.5959    17.418975    20.517251    21.251109    7594.9228    2641.0574    797.01224    5125.7179   -279.96912    1077.9481   -1237.0355   -3072.8182 
  947000    265.02184   -3887.9738   -3433.7354   -3887.9738            0    3993.2099    17.394436    20.488348    21.221172    7562.8706    2342.1731    3126.9911    6510.4654    1507.3207    487.96109   -1263.9533   -2993.2975 
  948000    253.96109   -3872.6517   -3437.3711   -3872.6517            0    3138.2701    17.533124    20.651704     21.39037    7745.2149    1552.9188    3291.3417    4570.5498     148.2667   -950.17864   -62.159572   -3082.8846 
  949000    284.41939   -3911.3998   -3423.9147   -3911.3998            0    4602.3933    17.410465    20.507228    21.240727    7583.7973    5180.5764    4815.5293    3811.0743    183.75811    739.03049   -293.45672   -2914.8812 
  950000    257.92767   -3872.6717   -3430.5925   -3872.6717            0    3345.0578    17.368595    20.457911    21.189646    7529.2145    4020.3333    3707.0824    2307.7576    329.28885     551.0632   -30.046689   -3063.2856 
  951000     256.8706   -3861.3105   -3421.0431   -3861.3105            0    4438.3915    17.411252    20.508155    21.241686     7584.825    3680.7239    5105.4836     4528.967   -146.94731    1014.7757    1596.8727    -2930.082 
  952000    265.13931   -3876.3773   -3421.9376   -3876.3773            0    3311.2479    17.436798    20.538245    21.272853    7618.2598    4918.7048    1357.6079    3657.4309   -562.26281    192.30881   -232.89382    -3054.043 
  953000    257.11639   -3900.9629   -3460.2742   -3900.9629            0    4864.1423    17.352001    20.438366    21.169401     7507.655    4170.5016    4813.8406    5608.0847     234.4588    1383.4653   -873.83508   -2927.6922 
  954000    243.77865    -3855.285   -3437.4567    -3855.285            0    3698.7579    17.401922    20.497165    21.230304    7572.6387    3131.0609      4656.63     3308.583   -736.24674    1463.5719    219.06436    -3028.969 
  955000    244.30783     -3870.21   -3451.4748     -3870.21            0    2118.4407    17.486763    20.597097     21.33381    7683.9382    1632.8542    2211.6915    2510.7764    79.076683    745.32804   -378.60972   -3214.0773 
  956000    247.39325   -3844.4989   -3420.4753   -3844.4989            0    5152.6067    17.413675    20.511009    21.244643    7587.9929     6111.924    4630.7729    4715.1232    640.51177   -420.32166    152.32098   -2850.2719 
  957000    265.57459   -3868.8986   -3413.7128   -3868.8986            0     3793.983    17.462344    20.568335    21.304019    7651.7936    3876.7208     3796.421    3708.8072     345.1617   -324.28065    70.514075   -2990.3287 
  958000    266.62649   -3844.4478   -3387.4591   -3844.4478            0    5308.0044    17.447613    20.550984    21.286047    7632.4446    5413.4099    5509.8948    5000.7086   -424.47503    172.18638   -812.84117   -2796.6179 
  959000    253.06054   -3822.7031   -3388.9659   -3822.7031            0    3264.2221     17.41146    20.508399     21.24194    7585.0967    2764.2922    4862.6314    2165.7428   -983.12741     368.0383   -276.16739   -3027.8749 
  960000    264.31553   -3834.8951   -3381.8673   -3834.8951            0    4658.9149    17.408684    20.505131    21.238554    7581.4704    4570.3418    6076.1943    3330.2086    642.09507    444.32315    1997.6265   -2866.7406 
  961000    274.39251   -3896.8119   -3426.5125   -3896.8119            0    3314.4634    17.410021    20.506705    21.240185     7583.217    1808.2956     3737.617    4397.4777   -734.19295   -1057.8135   -713.34262   -3059.9546 
  962000    251.72285   -3843.0944   -3411.6501   -3843.0944            0    2231.2359    17.438517     20.54027     21.27495    7620.5136    2872.3568    748.57401    3072.7768   -236.77252   -509.86033   -1139.0548   -3163.6764 
  963000    269.04304   -3852.1355    -3391.005   -3852.1355            0    3414.9007    17.433473    20.534328    21.268796    7613.9029     3056.348    4837.2347    2351.1193   -285.87959    1675.7526    228.44389   -3011.8111 
  964000    256.96133    -3847.839   -3407.4161    -3847.839            0    3855.3345    17.356047     20.44313    21.174336    7512.9069    4349.3451     2080.409    5136.2494   -1426.9306    2405.7031    -2495.873   -2984.9946 
  965000    250.78107    -3869.972   -3440.1418    -3869.972            0    4707.3972    17.404625     20.50035    21.233602    7576.1687    5980.2736    3876.5311    4265.3868    1367.0187   -49.505836    -1307.748   -2920.0184 
  966000    257.63164   -3860.6002   -3419.0283   -3860.6002            0    3782.2175    17.374662    20.465057    21.197047    7537.1072    5103.3764     3507.868    2735.4081    443.57025   -494.19338    1566.6538   -3003.2833 
  967000    249.64068   -3832.5287   -3404.6531   -3832.5287            0    2745.6762    17.375903    20.466519    21.198561    7538.7222     2300.861    2158.8302    3777.3373   -701.97623   -502.16703    514.36541    -3102.781 
  968000    258.53914   -3821.4081   -3378.2808   -3821.4081            0    4137.3809     17.37422    20.464537    21.196508    7536.5322    2004.4375    4263.8858    6143.8194   -760.27969    501.14998     269.3691   -2923.5306 
  969000    263.25118    -3842.632   -3391.4285    -3842.632            0    2639.6308    17.447581    20.550946    21.286009    7632.4029    3923.2808    3290.1582    705.45325   -1101.5082   -583.76458   -3126.4425   -3097.6092 
  970000    258.42072   -3889.9654   -3447.0411   -3889.9654            0    4007.6243     17.41804    20.516151    21.249969    7593.7007    4511.2739    4924.4552    2587.1438    896.15826   -697.87121       960.34   -3003.2114 
  971000    268.73688   -3871.5741   -3410.9683   -3871.5741            0    1817.9418     17.47288    20.580745    21.316873    7665.6516    2022.6692    2383.5921     1047.564    1084.0969    496.30412    -604.9212   -3207.7303 
  972000    257.20821   -3864.5791    -3423.733   -3864.5791            0    3230.8952    17.406279    20.502298     21.23562    7578.3283    2904.8171    2483.1606    4304.7079    1073.1222    142.81707   -1409.1136   -3066.6475 
  973000    250.48919   -3865.8529    -3436.523   -3865.8529            0     4312.632    17.448571    20.552112    21.287216    7633.7016    5383.6342    3038.4616    4515.8002   -341.38098     207.8101     1658.333   -2956.3989 
  974000    256.63588   -3829.3051     -3389.44   -3829.3051            0    3023.0457    17.453186    20.557548    21.292847    7639.7609    3742.3927    2763.6388    2563.1058   -52.986416   -554.48835   -513.78202    -3052.618 
  975000    260.72793   -3865.8395   -3418.9607   -3865.8395            0    2494.0813    17.549404     20.67088    21.410232    7766.8103    2258.5703    1622.4005     3601.273   -468.49911    203.70145    452.49765   -3136.4537 
  976000    270.61324   -3869.6237   -3405.8018   -3869.6237            0    3656.8974    17.395885    20.490054    21.222939      7564.76    3157.2732    2948.8313    4864.5876   -516.10234   -50.852117   -283.50256   -3002.3573 
  977000    276.74822   -3821.9627   -3347.6258   -3821.9627            0    5317.9598    17.396409    20.490671    21.223578    7565.4434    7222.4916     5501.546    3229.8418     947.6418    461.85123    514.28729   -2760.8727 
  978000    268.94132   -3833.5012    -3372.545   -3833.5012            0    4822.4104    17.338414    20.422362    21.152825    7490.0328    6186.8616    2224.0843    6056.2852      391.221   -147.02896   -117.17253   -2845.7717 
  979000    261.85997   -3859.0255   -3410.2065   -3859.0255            0    3700.0243    17.465547    20.572107    21.307926    7656.0041    3994.0245    3952.6901    3153.3583    1795.3434    156.24452   -811.24099   -2997.0804 
  980000    263.53772   -3843.5507   -3391.8561   -3843.5507            0    4696.9946    17.352335    20.438759    21.169809    7508.0886    3895.3291    5431.3372    4764.3176    751.23267   -296.28901   -1562.8489   -2877.5456 
  981000    264.73328   -3858.0439   -3404.3001   -3858.0439            0    3834.1655    17.455899    20.560743    21.296156    7643.3239    4144.9973    2971.5331    4385.9662    289.59131    528.47451   -479.49699   -2976.9056 
  982000    269.42729   -3880.1618   -3418.3727   -3880.1618            0    3906.4343    17.443493     20.54613    21.281021    7627.0386    5082.1114    2244.6088    4392.5826   -151.71721   -381.01681   -514.86164   -2983.8501 
  983000    254.08204   -3861.9017   -3426.4138   -3861.9017            0    4770.6868    17.394181    20.488047     21.22086    7562.5372    6188.0211    4623.1462    3500.8932    1186.2348   -934.01097   -536.52877   -2900.2459 
  984000    258.81295   -3822.4539   -3378.8574   -3822.4539            0    4690.1872    17.483124    20.592811     21.32937    7679.1418    3822.4976    4558.3644    5689.6996    317.71702    649.85999   -539.73642    -2853.592 
  985000    262.39454   -3853.0764   -3403.3411   -3853.0764            0    3490.1521    17.357104    20.444376    21.175627    7514.2805    2133.6573    2314.4974    6022.3016    804.04349   -480.63566   -8.2927925   -3020.8621 
  986000    262.06106   -3856.6918   -3407.5281   -3856.6918            0    3096.1437     17.34159    20.426102    21.156699    7494.1488    4418.3236    2409.5236    2460.5839     399.0856    1089.7956    205.28067   -3069.1367 
  987000    271.96976   -3836.5006   -3370.3537   -3836.5006            0    3223.0275    17.393735    20.487523    21.220316    7561.9562    2947.9762    4380.3176    2340.7886    428.24655    -345.7103     -804.497   -3014.9074 
  988000    267.45349    -3853.334   -3394.9278    -3853.334            0    4466.9744    17.377419    20.468305    21.200411     7540.696     6357.398    3371.5512    3671.9739    -1457.151    1179.7667   -844.27489   -2903.6799 
  989000    264.86659   -3869.6098   -3415.6375   -3869.6098            0    4434.3485    17.361003    20.448969    21.180383    7519.3456    5322.7136    3184.7734    4795.5585    308.11745    414.47214    1715.6188   -2929.3583 
  990000    257.33792    -3843.027   -3401.9587    -3843.027            0    3494.3276    17.439167    20.541035    21.275743    7621.3657    2933.1337    4917.8032    2632.0459    146.18791   -809.71452    772.56906   -3013.5648 
  991000    243.96166   -3845.5879    -3427.446   -3845.5879            0     2125.167    17.462869    20.568953     21.30466    7652.4836    2578.0728    2157.6601    1639.7679    759.80677    149.78634    1580.2689   -3190.2696 
  992000    265.34249   -3858.3874   -3403.5994   -3858.3874            0     4361.226    17.457499    20.562627    21.298108    7645.4251    5816.9603     1948.858    5317.8597   -328.70415   -583.06894   -111.08559   -2917.3198 
  993000    276.27412   -3849.9445   -3376.4201   -3849.9445            0    4945.6292    17.428776    20.528796    21.263066    7607.7506    4666.3665    4397.0794    5773.4416   -804.20447    1868.3024   -374.82683   -2827.6964 
  994000     272.4439   -3860.1246   -3393.1651   -3860.1246            0    5171.5529    17.411652    20.508626    21.242175    7585.3484    6110.1948    4651.9093    4752.5548   -918.29766     -768.637   -618.23269   -2821.0645 
  995000    269.86764    -3848.342   -3385.7981    -3848.342            0    3382.6195    17.495046    20.606854    21.343916    7694.8629    3904.9033    2128.3027    4114.6525   -293.73436   -267.61916   -349.28376   -3006.1949 
  996000     260.3325   -3851.4213   -3405.2203   -3851.4213            0    3746.9131    17.524894     20.64201    21.380329    7734.3132    5144.8818    3554.6016    2541.2561    307.18298   -458.19236   -814.73254   -2982.5796 
  997000    271.55497   -3884.3701   -3418.9341   -3884.3701            0    2835.6056      17.4805    20.589721     21.32617    7675.6855    1537.0831    3836.3152    3133.4184    624.36301   -937.28123   -1113.7444   -3101.5108 
  998000    272.75243   -3834.7251   -3367.2368   -3834.7251            0    4423.7651    17.470698    20.578175    21.314211    7662.7807    4913.3895    5501.6957      2856.21   -309.75322    -363.1986   -885.02501   -2872.8642 
  999000     247.3725   -3859.0748   -3435.0868   -3859.0748            0     4737.145    17.538721    20.658296    21.397198    7752.6346    4974.6242    4470.3981    4766.4127    227.51018    133.02817   -770.06255   -2899.4852 
 1000000    272.02158   -3856.3177   -3390.0821   -3856.3177            0    3536.9053    17.500991    20.613856    21.351169    7702.7099    4552.9438    2797.1664    3260.6058    725.32586   -1112.0154    30.099251   -2992.7598 
Loop time of 468.45 on 64 procs for 250000 steps with 864 atoms

Performance: 92.219 ns/day, 0.260 hours/ns, 533.674 timesteps/s
99.0% CPU use with 64 MPI tasks x 1 OpenMP threads

MPI task timing breakdown:
Section |  min time  |  avg time  |  max time  |%varavg| %total
---------------------------------------------------------------
Pair    | 20.06      | 24.767     | 29.566     |  43.3 |  5.29
Bond    | 0.26333    | 0.27893    | 0.29443    |   1.0 |  0.06
Kspace  | 210.2      | 216.59     | 224.31     |  20.1 | 46.24
Neigh   | 5.4452     | 6.1015     | 6.7899     |  13.8 |  1.30
Comm    | 97.956     | 103.42     | 110.3      |  29.8 | 22.08
Output  | 1.8473     | 1.8488     | 1.8546     |   0.2 |  0.39
Modify  | 106.77     | 108.75     | 112.22     |  12.9 | 23.22
Other   |            | 6.689      |            |       |  1.43

Nlocal:        13.5000 ave          20 max           6 min
Histogram: 1 1 3 6 6 26 11 9 0 1
Nghost:        2089.97 ave        2128 max        2043 min
Histogram: 1 2 6 7 10 6 17 7 3 5
Neighs:        4010.56 ave        6751 max        1527 min
Histogram: 1 2 6 9 19 12 12 2 0 1

Total # of neighbors = 256676
Ave neighs/atom = 297.07870
Ave special neighs/atom = 2.0000000
Neighbor list builds = 14222
Dangerous builds = 0

unfix		3
unfix		2
unfix		1

write_data	data.final.${pid}
write_data	data.final.0
System init for write_data ...
PPPM initialization ...
  extracting TIP4P info from pair style
  using 12-bit tables for long-range coulomb (../kspace.cpp:340)
  G vector (1/distance) = 0.373307
  grid = 24 24 25
  stencil order = 5
  estimated absolute RMS force accuracy = 0.0031794181
  estimated relative force accuracy = 9.5747232e-06
  using double precision FFTW3
  3d grid and FFT values/proc = 2730 288
Last active /omp style is kspace_style pppm/tip4p/omp
WARNING: Not all mixed pair coeffs generated from mixing. Use write_data with 'pair ij' option to store all pair coeffs. (../write_data.cpp:312)

write_restart   restart.lmp.${pid}
write_restart   restart.lmp.0
System init for write_restart ...
PPPM initialization ...
  extracting TIP4P info from pair style
  using 12-bit tables for long-range coulomb (../kspace.cpp:340)
  G vector (1/distance) = 0.373307
  grid = 24 24 25
  stencil order = 5
  estimated absolute RMS force accuracy = 0.0031794181
  estimated relative force accuracy = 9.5747232e-06
  using double precision FFTW3
  3d grid and FFT values/proc = 2730 288
Last active /omp style is kspace_style pppm/tip4p/omp
Total wall time: 0:07:51
