LAMMPS data file via write_data, version 30 Jul 2021, timestep = 5250000

864 atoms
2 atom types
576 bonds
1 bond types
288 angles
1 angle types

0.30965653424450146 17.89791586575248 xlo xhi
1.45626576514357 22.172912034861078 ylo yhi
0.3777802485073849 21.835415551494677 zlo zhi

Masses

1 1.00794
2 15.9994

Pair Coeffs # lj/cut/tip4p/long/omp

1 0 0
2 0.21084 3.1668

Bond Coeffs # harmonic/omp

1 450 0.9572

Angle Coeffs # harmonic/omp

1 55 104.52

Atoms # full

53 1 1 0.5897 2.0393337288166684 4.220986487361547 0.7439338086877427 -5 -2 7
216 1 1 0.5897 2.4840141596967977 2.837919551253983 2.5214012552205713 0 3 3
598 1 2 -1.1794 1.9377615641851622 4.495196241719183 5.205278768166682 0 -2 -3
215 1 1 0.5897 2.2023983483745564 4.187147543138716 3.1476293548004435 0 3 3
214 1 2 -1.1794 2.5171158657636727 3.777527066312807 2.34177887448058 0 3 3
600 1 1 0.5897 1.1743830416186598 5.056694138503511 5.340412246599144 0 -2 -3
599 1 1 0.5897 2.682988409365429 5.036667218864979 5.465437855458549 0 -2 -3
12 1 1 0.5897 1.5907594932866969 6.416818285183075 2.394252526940195 -2 1 5
493 1 2 -1.1794 4.186336244508285 6.495897439059863 4.741404927818118 2 -3 0
663 1 1 0.5897 2.5021617108720258 2.4081246374230383 7.3739152025553585 -3 -3 -1
197 1 1 0.5897 2.9448572484224784 2.6437003423315923 9.980276188720532 -3 0 -1
668 1 1 0.5897 3.192270581888726 5.097754231422263 8.073062796860194 -8 -6 -2
196 1 2 -1.1794 2.3509963831051635 2.447861000151983 9.25556393472301 -3 0 -1
662 1 1 0.5897 2.357900599954664 2.8654058777192417 5.9379647400493765 -3 -3 -1
654 1 1 0.5897 0.7610493474472804 2.4751040855215427 10.017312468937504 0 1 -1
661 1 2 -1.1794 2.371850298518752 2.079604276162895 6.484355507522659 -3 -3 -1
423 1 1 0.5897 4.625220701024124 3.311462889109192 10.664674495177293 -5 2 6
460 1 2 -1.1794 2.0071778637926263 6.01984414382772 9.087281386244928 2 4 -1
667 1 2 -1.1794 3.987798884456173 4.91439261487455 7.573317622720285 -8 -6 -1
461 1 1 0.5897 2.03647407153775 6.226819093964942 10.021399033697993 2 4 -1
198 1 1 0.5897 2.459583978175707 1.5090825725093604 9.10327986261456 -3 0 -1
669 1 1 0.5897 4.320092502009893 5.77732217155486 7.325982016211706 -8 -6 -1
131 1 1 0.5897 4.275490969523458 1.8487339920469186 6.1735514724831395 -4 1 -1
422 1 1 0.5897 4.564326958319929 2.7233735670330894 12.058354385578502 -5 2 6
167 1 1 0.5897 0.49284654474062467 2.7989674103382196 13.557078141280078 -2 -1 1
626 1 1 0.5897 1.0106236018058405 5.82824086996223 12.232413431831937 -4 -2 0
672 1 1 0.5897 3.6625340285053847 4.973928614173778 13.751131058122446 3 1 -1
649 1 2 -1.1794 1.4785949548952584 4.157507739029143 12.169820325141897 1 -2 -1
651 1 1 0.5897 2.363954626023158 3.8126505000477064 12.053859390356878 1 -2 -1
5 1 1 0.5897 0.9583989818702138 5.7607538092773485 15.2321149744354 -1 1 0
421 1 2 -1.1794 4.021004548939809 2.9192395345855893 11.295006544199337 -5 2 6
721 1 2 -1.1794 3.167852117288271 1.665561439883355 15.400752934001362 0 2 0
4 1 2 -1.1794 1.7991083196057112 5.537069566924572 15.63136171135355 -1 1 0
723 1 1 0.5897 2.464483275639583 1.9815252347593997 15.967913891598604 0 2 0
670 1 2 -1.1794 4.59551866015325 5.081825778221397 13.93587195384365 3 1 -1
650 1 1 0.5897 0.9795494071397514 3.787192525600359 11.441775956128687 1 -2 -1
728 1 1 0.5897 4.429127698758032 6.015930984097893 16.26834864071794 1 1 -2
738 1 1 0.5897 4.364938957632151 2.0438619638222284 14.104991130784809 3 -1 3
6 1 1 0.5897 1.9300610014722503 6.204468925874415 16.3049007486299 -1 1 0
403 1 2 -1.1794 3.97415118180836 2.2888670322455167 21.24534829801057 6 -2 0
551 1 1 0.5897 4.166804301330062 5.075709493984784 20.365069338311244 -2 8 -4
614 1 1 0.5897 3.171308102851259 3.6609717311039383 18.31679034556695 -3 2 3
615 1 1 0.5897 4.301650808206095 4.657015226236837 18.16801978718264 -3 2 4
52 1 2 -1.1794 1.7220046641942524 4.1061362900838745 21.305824550379004 -5 -2 6
54 1 1 0.5897 1.0590374836895675 3.418852809395803 21.372395741229052 -5 -2 6
576 1 1 0.5897 0.7866963970458011 5.8334899525422745 20.498902144401114 5 0 2
613 1 2 -1.1794 4.078159235368778 3.8213405873624007 18.577836421965745 -3 2 4
304 1 2 -1.1794 1.6470845107295027 3.1054862167677397 17.198690007234525 4 0 -5
404 1 1 0.5897 3.2138731423975484 2.818919718770311 21.006062395028255 6 -2 0
550 1 2 -1.1794 4.509025272976794 5.809644182369484 20.875475011847346 -2 8 -4
305 1 1 0.5897 1.6546191204379495 4.002094518649564 16.863614221762305 4 0 -5
405 1 1 0.5897 3.8868555027866916 1.4932578154495473 20.720348619201776 6 -2 0
306 1 1 0.5897 0.7200660695453098 2.9057658893907985 17.328974309929727 4 0 -5
552 1 1 0.5897 4.599385876420145 5.463160789897786 21.7632044977792 -2 8 -4
118 1 2 -1.1794 4.5525255465937375 10.464641484398385 4.7273039797596335 1 -4 -3
448 1 2 -1.1794 1.0806142280777948 9.295888329944834 3.0630761292536954 4 0 -3
120 1 1 0.5897 3.6168266266199365 10.40543917238186 4.920203264868519 1 -4 -3
449 1 1 0.5897 1.118796871145201 9.754080285633819 3.9026370337232796 4 0 -3
803 1 1 0.5897 2.725256113825115 7.842680966857446 1.1451310444168725 1 1 -3
11 1 1 0.5897 1.7113519265601433 7.8534084138385465 2.85644240947087 -2 1 5
10 1 2 -1.1794 2.2312822045692524 7.070558148557791 2.674590379210433 -2 1 5
539 1 1 0.5897 1.281998854459363 10.67957163300262 1.9989526386075092 -1 -4 0
538 1 2 -1.1794 1.2905990149947488 11.586628328062677 1.6933099660196118 -1 -4 0
495 1 1 0.5897 3.5785770412295936 6.74568724745045 4.0453703602511615 2 -3 0
175 1 2 -1.1794 1.9718337454899235 10.152571526228487 5.494539860471076 -2 -2 7
176 1 1 0.5897 2.0768318788573694 9.571251880974506 6.247716093248751 -2 -2 7
163 1 2 -1.1794 2.032378427443095 8.473008452656225 7.9913582887627435 -4 3 -2
195 1 1 0.5897 0.38954072996273226 11.072924159184836 9.19868713687794 0 -4 2
164 1 1 0.5897 1.150896225594166 8.610850804460465 8.338073770144375 -4 3 -2
165 1 1 0.5897 2.612352687312794 8.847181033266486 8.654568610050571 -4 3 -2
177 1 1 0.5897 1.431950697814897 10.872623086062488 5.82055158651973 -2 -2 7
462 1 1 0.5897 2.1708441219753674 6.855956644649746 8.650968806309688 2 4 -1
331 1 2 -1.1794 3.519795917888829 9.49953857925944 10.262906940827257 -1 -1 -4
333 1 1 0.5897 4.382085771804964 9.084326583788183 10.279760768959301 -1 -1 -4
332 1 1 0.5897 3.1059418977866162 9.226523474388419 11.081713512911573 -1 -1 -4
573 1 1 0.5897 3.6164662239620973 11.288689210763478 10.873474735648683 3 -2 -4
609 1 1 0.5897 4.251410794663029 8.995003722327606 15.932593806634795 7 2 2
470 1 1 0.5897 3.9961886626036978 8.974074148923936 13.622004528542591 0 -4 5
438 1 1 0.5897 2.3654365660232255 9.556501388095766 13.355848841735208 -3 4 -1
75 1 1 0.5897 2.617224138495727 11.459740427727949 15.36756519872635 4 -4 2
74 1 1 0.5897 2.481319208057189 9.966605886792342 15.577219507258954 4 -4 2
437 1 1 0.5897 1.7277712706005872 8.33100982517323 12.736624983151273 -3 4 -1
436 1 2 -1.1794 2.544857508971646 8.829052783841544 12.760154937982835 -3 4 -1
73 1 2 -1.1794 2.29726304684688 10.66218812912206 14.945943087559995 4 -4 2
625 1 2 -1.1794 0.7181478663266014 6.704758034716195 11.982588501940649 -4 -2 0
268 1 2 -1.1794 4.347563786494465 10.710392656728628 18.997924839728782 3 7 7
269 1 1 0.5897 3.8469085449018396 10.708036687429209 19.813746754838785 3 7 7
683 1 1 0.5897 1.6042478859278697 7.83110696402915 17.655601533673867 4 2 -4
270 1 1 0.5897 3.829860943994249 10.174467556181554 18.397092874964336 3 7 7
608 1 1 0.5897 4.0434655925408425 8.02976876690939 17.08017810570288 7 2 2
754 1 2 -1.1794 0.33582557041884087 9.31552294843637 17.36757555623403 -5 -2 -5
682 1 2 -1.1794 1.8143784117902397 6.940550396567744 17.936660114028804 4 2 -4
641 1 1 0.5897 1.1641081137017029 9.003354446652875 21.106849298336805 1 3 -5
575 1 1 0.5897 0.3267207387011055 7.269210821233931 20.63678880926224 5 0 2
804 1 1 0.5897 3.2554869004313614 7.507654957738147 21.224843249445048 1 1 -4
607 1 2 -1.1794 3.846048342028098 8.922454432970923 16.79668288576838 7 2 2
326 1 1 0.5897 4.29285407427785 9.263934808651545 21.817411216451827 -2 0 -4
756 1 1 0.5897 0.4756087537740282 10.08044562712518 17.925778964050387 -5 -2 -5
802 1 2 -1.1794 2.8574009422261906 8.215747726784183 21.731189514005234 1 1 -4
684 1 1 0.5897 1.2215104736324172 6.77398216582142 18.669468541211465 4 2 -4
445 1 2 -1.1794 1.5469796116989236 13.89489311176176 4.518320389766411 2 1 0
336 1 1 0.5897 4.697644886519611 14.040197800757896 1.7787994053229035 4 1 3
446 1 1 0.5897 2.0922021600797915 13.510471182681538 3.831889462090016 2 1 0
566 1 1 0.5897 3.731213297077711 11.846176141409307 3.1625890178302307 -1 3 -5
687 1 1 0.5897 0.9180962563366686 16.43995029022434 2.4334688706570327 10 -9 -3
364 1 2 -1.1794 0.9588513321052304 15.131323842268877 1.0392634251124357 4 4 4
765 1 1 0.5897 0.3502530749810342 12.653178131582662 5.401668333109217 -4 -1 -3
447 1 1 0.5897 2.1715301947233927 14.223256708957724 5.1651315970447635 3 1 0
565 1 2 -1.1794 3.480023412117704 12.665118060933121 2.735433814861289 -1 3 -5
567 1 1 0.5897 2.6727712045580825 12.453486089423514 2.2666120649181885 -1 3 -5
800 1 1 0.5897 4.145935186668918 16.388420938753946 2.3514910622504503 1 0 1
365 1 1 0.5897 1.0685552862915082 15.924057027240083 0.5141294328227992 4 4 4
540 1 1 0.5897 0.39547237792302187 11.895523585264824 1.8331992075300922 -1 -4 0
366 1 1 0.5897 0.5135333622812681 14.516776507918392 0.4559534456229928 4 4 4
764 1 1 0.5897 0.5794306226693732 12.364615861197123 6.870038046854117 -4 -1 -3
329 1 1 0.5897 2.5147427320505984 16.494382422060845 9.297103677289936 3 4 0
592 1 2 -1.1794 3.040024385986494 12.55844667332931 8.321535602657967 -1 -3 -1
681 1 1 0.5897 2.706048589544918 15.354044726659074 6.88180376688689 -7 -5 0
680 1 1 0.5897 3.9133452556355617 14.901091294338093 6.088592122516674 -7 -5 0
594 1 1 0.5897 3.0892139115266146 13.231489795864478 7.642701141499513 -1 -3 -1
593 1 1 0.5897 3.9005455639824524 12.139493645292834 8.306899746381385 -1 -3 -1
679 1 2 -1.1794 3.11292776848901 14.575925479465553 6.500684908010506 -7 -5 0
328 1 2 -1.1794 2.352767941430186 16.580302804521494 8.357613556288934 3 4 0
572 1 1 0.5897 3.2228566692923866 12.553315495148555 10.14017232220848 3 -2 -4
194 1 1 0.5897 1.4418913354175764 12.103164856570423 8.847898629299447 0 -4 2
193 1 2 -1.1794 0.5172759647954592 12.013986742519922 9.079025556778179 0 -4 2
330 1 1 0.5897 1.4893990453358448 16.989525812596362 8.299349981099244 3 4 0
571 1 2 -1.1794 3.253121778015254 12.163084511108426 11.013704472922127 3 -2 -4
853 1 2 -1.1794 2.9275383782700937 16.36781621058404 10.955417438265183 -1 0 -1
355 1 2 -1.1794 3.313046790297639 15.345193436514597 14.97061995263341 -1 -4 5
426 1 1 0.5897 1.365092307205403 14.401306543972131 12.803671755775502 7 -5 0
356 1 1 0.5897 4.131629282934373 15.067393813911725 14.55954863097583 -1 -4 5
352 1 2 -1.1794 3.2364138439011696 13.024884219684301 16.467841845266857 2 3 -4
354 1 1 0.5897 3.132251142319104 13.896316411371544 16.085750542271334 2 3 -4
315 1 1 0.5897 4.699261671789991 16.086438924912645 11.220733300746549 -1 1 1
357 1 1 0.5897 2.696255681388379 15.430405224978035 14.243613997795132 -1 -4 5
424 1 2 -1.1794 1.3442168852586183 15.30955630748755 13.105117008155958 7 -4 0
854 1 1 0.5897 2.3886594555821503 15.798428056677217 11.504637156023684 -1 0 -1
544 1 2 -1.1794 1.0852194523256884 12.550002031701172 12.74001800206166 -2 4 3
835 1 2 -1.1794 0.47727907614438925 14.42908430412321 16.034617398582014 2 3 -1
545 1 1 0.5897 1.693235946180726 12.2536432454292 12.062726351692588 -2 4 3
425 1 1 0.5897 0.5786598816160866 15.688291929161657 12.673015003973612 7 -4 0
546 1 1 0.5897 1.175063390029131 11.90538802613574 13.441889881391758 -2 4 3
837 1 1 0.5897 1.1120496378302918 14.626747368606782 15.345979623751834 2 3 -1
84 1 1 0.5897 2.0714006816069843 14.285267246095918 18.71496846319963 -6 -2 -7
83 1 1 0.5897 0.9503217434779678 14.78056977271043 17.826283662632942 -6 -2 -7
353 1 1 0.5897 4.124584579301443 13.023934121647553 16.82474863806112 2 3 -4
303 1 1 0.5897 2.6239990776973734 16.464844156297 19.15529737099981 0 3 7
82 1 2 -1.1794 1.2850933923419696 14.831085858498586 18.72160451591393 -6 -2 -7
633 1 1 0.5897 2.051969571407333 12.024520027541362 21.659992993542353 3 7 4
632 1 1 0.5897 3.067064456000125 12.724185829068777 20.78139746475889 3 7 4
601 1 2 -1.1794 3.6511715034726078 14.394136996420844 20.483253842573628 1 3 0
603 1 1 0.5897 3.39169029613106 14.692574945152902 21.354933722416938 1 3 0
252 1 1 0.5897 2.0594734387118088 12.274195498284145 17.770721429674737 4 -2 0
602 1 1 0.5897 4.555422328241212 14.692866280038569 20.386622585365288 1 3 -1
251 1 1 0.5897 1.7347533282861975 11.857467656446723 19.189459951155044 4 -2 0
250 1 2 -1.1794 1.390330966798276 11.836085939313426 18.29662446294725 4 -2 0
631 1 2 -1.1794 2.517816094301207 11.94163509518531 20.827919080731697 3 7 4
89 1 1 0.5897 3.7441027550703527 19.103133214664457 0.7663208359981726 7 -2 3
114 1 1 0.5897 3.506970077827343 20.97884145654505 3.3132553819057384 -4 0 3
112 1 2 -1.1794 3.179540276962609 21.56306874888674 2.629368531797464 -4 0 3
90 1 1 0.5897 2.824442202123413 20.05161287521534 1.505596810383272 7 -2 3
686 1 1 0.5897 0.7286117581216542 17.939188587938858 2.524579136310301 10 -9 -3
467 1 1 0.5897 0.5878904320098184 21.22329591353443 4.463914469755083 3 -5 6
316 1 2 -1.1794 4.140847456918518 19.988753282848805 4.779349087656201 -4 -4 2
88 1 2 -1.1794 2.9856322372774833 19.67346478610041 0.6411248826387033 7 -2 3
466 1 2 -1.1794 0.6845818709387224 21.38747580681908 3.5258713327846416 3 -5 6
468 1 1 0.5897 1.6214339071591541 21.283498579416932 3.3593584499834774 3 -5 6
317 1 1 0.5897 3.946632581964511 19.524635491987574 5.593660166041406 -4 -4 1
249 1 1 0.5897 0.7336181691804662 17.681790514648295 4.948868311777917 -1 -2 -5
113 1 1 0.5897 3.9631364690010797 21.98989177932332 2.282920986613519 -4 0 3
801 1 1 0.5897 3.014754385086275 17.052668911167977 3.1072355830354406 1 0 1
685 1 2 -1.1794 0.7789705678881701 17.1485444363179 3.0617844415255586 10 -9 -3
799 1 2 -1.1794 3.9692270896766333 17.031546893041522 3.038080763988719 1 0 1
276 1 1 0.5897 2.3170951015549366 20.15722905749501 9.615071886550636 0 1 -2
843 1 1 0.5897 3.3793752282610012 19.377054277496804 8.001756666281512 -3 0 2
841 1 2 -1.1794 3.7196506896944315 18.742761383929874 7.370784805321115 -3 0 2
458 1 1 0.5897 1.2886691450928405 21.408382661223854 6.440326415606357 1 1 -3
842 1 1 0.5897 3.3365119610316514 17.907744781672033 7.639480277071176 -3 0 2
274 1 2 -1.1794 3.1208891595434824 20.536302267867907 9.259484731171503 0 1 -2
346 1 2 -1.1794 0.7388775806854475 19.37872700460629 10.176317064106916 -6 3 -2
275 1 1 0.5897 3.7422465575769333 20.507203584899656 9.987009796333886 0 1 -2
457 1 2 -1.1794 0.6661307147164536 20.7091508482653 6.240947183185988 1 1 -3
247 1 2 -1.1794 0.4577542227089424 17.92557294022331 5.832441427869392 -1 -2 -5
248 1 1 0.5897 0.8135210608808127 18.80488911586835 5.960898357776425 -1 -2 -5
722 1 1 0.5897 2.8582822492262285 21.533367373427083 15.084705731074157 0 1 0
297 1 1 0.5897 1.703400727583351 18.988474589700587 11.838506041503928 0 0 -1
781 1 2 -1.1794 2.057792890910462 20.103412601810003 14.60140592869708 -2 -1 0
296 1 1 0.5897 2.3418888802506586 19.146218543847684 13.20208075624455 0 0 -1
782 1 1 0.5897 1.1012175985644537 20.09482802123545 14.567861128798386 -2 -1 0
343 1 2 -1.1794 4.427236364530238 20.628956334443725 11.853321357347305 -4 -1 -2
295 1 2 -1.1794 2.4399459210227414 18.68489107773005 12.369142248767156 0 0 -1
783 1 1 0.5897 2.2789651223962566 19.486723658371346 15.299301605024562 -2 -1 0
344 1 1 0.5897 3.694519891256398 20.025871024808065 11.9787506005093 -4 -1 -2
499 1 2 -1.1794 3.390465626198132 18.187314639535643 16.443117274103045 -2 -2 -3
500 1 1 0.5897 3.3023615507419466 17.28342179416306 16.140695906474427 -2 -2 -3
855 1 1 0.5897 2.734852025647021 17.252720687564548 11.265456512497348 -1 0 -1
358 1 2 -1.1794 1.1571232152895623 17.568112857231576 21.159198581936526 3 -3 -2
856 1 2 -1.1794 3.1803077518133818 20.70873976913011 19.675386863530424 1 -1 -6
858 1 1 0.5897 3.0564413218878075 20.294400374510193 20.52932197134489 1 -1 -6
359 1 1 0.5897 1.4880577593787152 17.65486095444862 20.265230003174732 3 -3 -2
482 1 1 0.5897 1.621352581106207 20.208866436068615 18.92892455563015 -2 3 -4
360 1 1 0.5897 1.5693790418542144 18.286829229534863 21.638518257687647 3 -3 -2
501 1 1 0.5897 3.1311199226277497 18.158592479480834 17.364090066114034 -2 -2 -3
857 1 1 0.5897 4.103608767796942 20.562683382479847 19.469447370056002 1 -1 -6
483 1 1 0.5897 1.0292598388974663 18.970764971502998 18.28980878579595 -2 3 -4
301 1 2 -1.1794 2.851479806783632 17.37830102716731 18.981868784196255 0 3 7
481 1 2 -1.1794 0.7874359858571928 19.77387849248313 18.751107974836167 -2 3 -4
302 1 1 0.5897 3.780909500986692 17.44015108361539 19.20223751067025 0 3 7
148 1 2 -1.1794 8.659071275255112 2.848295319606272 0.6842576186995453 -4 0 4
844 1 2 -1.1794 8.439566411198463 4.030422473819748 3.4544114676384496 0 2 5
147 1 1 0.5897 8.758947305801467 5.7134464333000965 2.5454870542878454 2 3 -5
18 1 1 0.5897 5.131285689154588 4.47004078116281 2.561045588508075 -1 2 0
441 1 1 0.5897 5.752408935690411 3.430763449117531 5.24762953686894 0 1 -4
846 1 1 0.5897 7.628849402843005 3.984326047765531 3.9612277120460977 0 2 5
145 1 2 -1.1794 8.964027913370977 6.42450943951752 1.938393082913198 2 3 -5
845 1 1 0.5897 8.215113932672038 3.6457053888525466 2.6071537742060507 0 2 5
439 1 2 -1.1794 6.17876137562746 4.265184349940276 5.052210256774819 0 1 -4
440 1 1 0.5897 5.469851408295852 4.907964303324276 5.074671363009781 0 1 -4
749 1 1 0.5897 5.221205324858251 2.8390621783869605 1.2894327376681547 4 7 0
16 1 2 -1.1794 5.272997370098026 5.393947609222765 2.3547676205801324 -1 2 0
17 1 1 0.5897 5.2631147534354135 5.833896913292478 3.204825072600314 -1 2 0
748 1 2 -1.1794 5.689531955590047 2.6556553705641583 2.103836469231948 4 7 0
750 1 1 0.5897 6.0286852486243285 1.767699107666632 1.9908985714594862 4 7 0
146 1 1 0.5897 8.745422817534173 6.073552050722986 1.0750997899372918 2 3 -5
280 1 2 -1.1794 5.591689573208823 3.805580705722096 9.37282075603042 -3 0 1
93 1 1 0.5897 8.456778007120182 5.259218998838001 9.814125823616626 1 -3 -1
281 1 1 0.5897 6.055381713343804 3.010901927815279 9.108772633794446 -3 0 1
387 1 1 0.5897 6.502578481475638 4.726059693450178 10.675647205491222 -6 0 2
282 1 1 0.5897 5.083450857883175 4.0546001574439625 8.600826992009017 -3 0 1
696 1 1 0.5897 7.318667430729484 5.346214438201906 5.851628993550771 5 -2 -2
694 1 2 -1.1794 7.813447696944258 6.091538475720104 6.192090392573119 5 -2 -2
521 1 1 0.5897 7.342415109205908 2.1966973536094865 8.011213917423493 -5 -2 -3
520 1 2 -1.1794 6.657443414205197 1.5681638264745352 8.239231645899054 -5 -2 -3
522 1 1 0.5897 6.089026849238445 1.5428989834008249 7.46949471469576 -5 -2 -3
130 1 2 -1.1794 5.1720500967948375 1.5678525527559315 5.990444478833459 -4 1 -1
736 1 2 -1.1794 5.1186130059829 2.0696682699049376 13.515442815479636 3 -1 3
396 1 1 0.5897 8.310233858260009 2.3045973917055074 13.101206237943808 2 0 3
102 1 1 0.5897 8.853268004413886 4.221250670434815 11.844642713736388 4 -6 -2
395 1 1 0.5897 6.962757763826895 1.8677755226256036 13.63544151198506 2 0 4
597 1 1 0.5897 5.4415028854450345 6.567886894125711 13.214692489152446 0 -4 0
714 1 1 0.5897 7.836510829654754 3.5098968801262096 15.576963279949481 -6 1 2
712 1 2 -1.1794 6.940717575831555 3.84152588148193 15.63874923026844 -6 1 2
386 1 1 0.5897 6.735235393872527 5.664740190021841 11.840408623847992 -6 0 2
713 1 1 0.5897 6.5406293069680554 3.323392650046741 16.337111353842104 -6 1 2
385 1 2 -1.1794 7.1978310700876165 5.135153365798526 11.19097325001353 -6 0 2
671 1 1 0.5897 4.867343067946376 4.23886908483512 14.298891207077393 3 1 -1
394 1 2 -1.1794 7.877566462627974 1.5930084302012255 13.57309354861934 2 0 4
541 1 2 -1.1794 6.760621598732216 3.1448656244205293 20.21400883892278 -6 2 1
543 1 1 0.5897 5.921401377332408 2.8918331316341304 19.829417792938283 -6 2 1
789 1 1 0.5897 5.984746060101154 5.894912571188319 19.950425191385282 1 -1 4
542 1 1 0.5897 6.823505053386416 4.086581713802292 20.054502097591378 -6 2 1
156 1 1 0.5897 8.412161832228474 1.8777817638783223 17.85383791409522 3 3 -5
729 1 1 0.5897 5.699377165857682 6.253379764474804 17.057024646202542 1 1 -2
706 1 2 -1.1794 7.567986834456355 6.162424800153314 16.99824889064243 1 -3 -8
787 1 2 -1.1794 6.834156735519004 5.722859323235405 19.544056292534048 1 -1 4
761 1 1 0.5897 4.749845789354172 2.5518756793369284 17.62643130997693 0 -3 2
708 1 1 0.5897 7.375381434992355 6.018580450906537 17.924768353337072 1 -3 -8
155 1 1 0.5897 8.147170811026683 2.3806869434303173 19.25696270694055 3 3 -5
760 1 2 -1.1794 5.328148372124026 1.9775784228323063 17.12446052080252 0 -3 2
154 1 2 -1.1794 8.70867091174708 1.786265223581782 18.759361482340065 3 3 -5
707 1 1 0.5897 7.425295422813937 5.309341479429536 16.588220783580276 1 -3 -8
727 1 2 -1.1794 4.745532180486984 6.284290432852808 17.13096167766455 1 1 -2
788 1 1 0.5897 7.397390456945151 6.431046129883535 19.85626057373105 1 -1 4
150 1 1 0.5897 7.82500184619415 3.050690828188741 21.718102614981582 -4 0 3
618 1 1 0.5897 7.4123289215013335 8.577638860387028 3.897815278949703 -3 4 1
322 1 2 -1.1794 8.156331086594651 9.701443903664696 1.6891755482675914 7 0 -1
414 1 1 0.5897 7.7642251061014935 11.661897043188882 4.191188355130997 -2 -3 4
412 1 2 -1.1794 8.439715833582968 10.986198273952292 4.132860928950586 -2 -3 4
325 1 2 -1.1794 5.1055107039160035 9.764140315398638 0.43465581618130217 -2 0 -3
695 1 1 0.5897 7.818968678763255 6.7241944114053505 5.473797763484182 5 -2 -2
327 1 1 0.5897 5.74777432018294 9.131707639015277 0.7567624473529124 -2 0 -3
616 1 2 -1.1794 7.23224916246312 7.639243911547183 3.9545646437946584 -3 4 1
119 1 1 0.5897 4.982294231657914 10.178912879585623 5.533456206028014 1 -4 -3
324 1 1 0.5897 8.140798521771838 10.106857152936229 2.5561411594401897 7 0 -1
617 1 1 0.5897 7.655210789291957 7.2665024070488835 3.1810061520030946 -3 4 1
323 1 1 0.5897 8.553808630685682 10.36238568038286 1.1222609115718392 7 0 -1
494 1 1 0.5897 4.706833022726387 7.283480906185639 4.899599601268831 2 -3 0
644 1 1 0.5897 5.82771114462804 11.626346676817976 0.7476992552974906 7 -2 -2
402 1 1 0.5897 5.807273837220416 9.025345986833191 7.483596486746861 -2 -4 3
40 1 2 -1.1794 6.046034046259562 8.334021953757967 10.10796898746476 -1 1 4
400 1 2 -1.1794 5.831451270338302 9.86874379820169 7.0315182075846465 -2 -4 3
72 1 1 0.5897 6.016908990045256 7.418400696671178 8.502931508802424 3 1 -4
815 1 1 0.5897 7.988222362028428 11.233857564911638 9.922483193165274 -4 5 -2
42 1 1 0.5897 6.565614896361394 9.129493605921603 10.224134791718434 -1 1 4
718 1 2 -1.1794 8.699401436667356 10.005198510405886 6.671206994421364 5 4 0
71 1 1 0.5897 6.570935515717098 6.683781429124781 7.30073318217454 3 1 -4
814 1 2 -1.1794 7.890150261264218 10.625845196649498 10.655248991831145 -4 5 -2
70 1 2 -1.1794 5.774482549478862 7.096544069296945 7.634666904414846 3 1 -4
401 1 1 0.5897 5.7954627053557575 10.518445212965332 7.733527350453285 -2 -4 3
720 1 1 0.5897 7.775278693773621 9.991283167227696 6.920403738093133 5 4 0
719 1 1 0.5897 8.698380154604541 10.305886087168513 5.762454975732986 5 4 0
213 1 1 0.5897 9.077171867030037 11.553914013355598 7.67598109659643 4 2 2
59 1 1 0.5897 8.895437873275137 9.22056475119565 10.674348688271719 3 -4 -2
41 1 1 0.5897 6.312444197269371 7.765702781269389 10.830646450418396 -1 1 4
596 1 1 0.5897 6.774290447078414 7.254325222005707 13.425367967160996 1 -4 0
279 1 1 0.5897 7.6877412428072605 8.634896193759506 15.311268932219122 1 0 1
469 1 2 -1.1794 4.7784721875222615 9.125391846704439 14.152460663743879 0 -4 5
278 1 1 0.5897 7.837959688399124 7.149734978937835 15.563526358479479 1 0 1
471 1 1 0.5897 5.444017316572397 8.555932795269332 13.76645783968454 0 -4 5
816 1 1 0.5897 7.740486463718061 11.188163339030185 11.41528706628485 -4 5 -2
277 1 2 -1.1794 7.778206442559162 7.795756720368797 14.859732085318777 1 0 1
769 1 2 -1.1794 5.981045485899479 11.806749350407985 14.582836475077336 4 0 -2
770 1 1 0.5897 5.455395756437105 11.067532728466777 14.277070561246237 4 0 -2
373 1 2 -1.1794 8.470027893615233 11.72064751694047 13.338620994292999 5 2 0
375 1 1 0.5897 7.711159433365698 11.758732160601427 13.920768259115233 5 2 0
595 1 2 -1.1794 6.105452738155268 7.08736286209907 12.761267297808892 0 -4 0
639 1 1 0.5897 8.078917102636684 11.244178151980067 15.840451401014269 -6 -1 7
771 1 1 0.5897 6.167190384185236 11.60577242752106 15.500003582228214 4 0 -2
637 1 2 -1.1794 7.8075537169733416 10.447594390885278 16.296584786575803 -6 -1 7
452 1 1 0.5897 5.871004114529567 9.827481058110058 19.015567033703334 0 -1 4
638 1 1 0.5897 8.607823672474716 10.123024546635111 16.709486223415766 -6 -1 7
453 1 1 0.5897 6.729977559700808 9.398181847032383 17.845208960452194 0 -1 4
839 1 1 0.5897 7.537946200288801 8.729945523990523 20.437454592971623 -2 -1 -1
660 1 1 0.5897 7.882112535084873 10.867065135657745 19.377584890707723 0 -3 0
840 1 1 0.5897 8.30266008429615 8.359345617870474 21.690370487197846 -2 -1 -1
838 1 2 -1.1794 8.018921394032992 8.009981376189224 20.845572077912248 -2 -1 -1
451 1 2 -1.1794 6.7107848734567845 9.420842272577367 18.801942895585967 0 -1 4
658 1 2 -1.1794 8.134592700134792 11.512562405295848 20.03774461213572 0 -3 0
659 1 1 0.5897 7.340012885981607 11.65241913571693 20.55283916878104 0 -3 0
335 1 1 0.5897 5.828706273923463 15.01198568170878 2.0400805096700196 4 1 3
664 1 2 -1.1794 8.815965060946377 13.697114910519225 2.1754745243360363 5 0 4
643 1 2 -1.1794 6.413703652093704 12.375247893387813 0.6380036767659174 7 -2 -2
850 1 2 -1.1794 6.282216892017404 12.609630741688017 4.496401735991408 -6 1 -2
334 1 2 -1.1794 5.012563606205993 14.914571419201408 1.549517525208008 4 1 3
38 1 1 0.5897 7.581867956152395 15.622913840235096 3.6433618528512244 2 0 -2
851 1 1 0.5897 5.715634422933311 11.851336086994106 4.63858609907244 -6 1 -2
39 1 1 0.5897 8.259103056556352 16.68418663945055 2.8025523690502974 2 0 -2
37 1 2 -1.1794 7.41793565041484 16.247574282627454 2.936835203856235 2 0 -2
606 1 1 0.5897 4.91707288766244 15.744525177623006 4.248542918760251 -7 3 0
852 1 1 0.5897 5.705002959385696 13.36490163550576 4.608840467018677 -6 1 -2
666 1 1 0.5897 8.860745111352015 13.900698092469089 3.109697815568479 5 0 4
319 1 2 -1.1794 8.623610478186318 14.386914375771624 5.064547051587227 1 1 2
645 1 1 0.5897 6.705165204804069 12.583925037473247 1.5255479331789037 7 -2 -2
604 1 2 -1.1794 5.241516351875562 15.276323472360192 5.017813985406424 -7 3 0
819 1 1 0.5897 9.096429944695393 14.761475193116437 0.4905543164624844 1 -2 0
605 1 1 0.5897 5.633906453998051 15.956675110943516 5.565023061363193 -7 3 0
321 1 1 0.5897 7.9619654492951035 14.103983088514061 5.695755837061662 1 1 2
849 1 1 0.5897 6.829654793853467 15.99500111902355 9.755533514157902 2 -3 6
199 1 2 -1.1794 7.292162956779798 13.715245780211365 7.343789098040627 -1 -2 -3
464 1 1 0.5897 6.373681295361287 12.555679913811852 8.275756500941327 4 3 -1
201 1 1 0.5897 7.091593410527035 14.477394021962581 7.887047534244612 -1 -2 -3
465 1 1 0.5897 5.90138985700377 12.400811570873604 9.70573073948837 4 3 -1
848 1 1 0.5897 6.721694205338657 16.323600110151602 8.281670054936956 2 -3 6
847 1 2 -1.1794 7.309052635407918 15.933932919735105 8.92927804109689 2 -3 6
200 1 1 0.5897 8.098318083038624 13.359496255989988 7.717664975615778 -1 -2 -3
582 1 1 0.5897 8.986337023775674 15.619707012586842 9.539995660494153 -2 -3 0
463 1 2 -1.1794 5.820324741704707 12.010821052006705 8.835351935910737 4 3 -1
777 1 1 0.5897 8.626388159752045 16.084242481774975 6.089595616991334 6 -5 -1
239 1 1 0.5897 7.43812111964224 13.24594616099742 11.677036433604469 -5 -5 0
560 1 1 0.5897 6.411391142256557 14.890062600559999 14.703537558702987 4 4 0
561 1 1 0.5897 5.8539794293409235 13.723983462371825 13.915225793330077 4 4 0
559 1 2 -1.1794 5.817816098029244 14.67808789958374 13.983145405691857 4 4 0
620 1 1 0.5897 8.774697506467575 16.65325426758049 14.363765726330303 -2 1 4
238 1 2 -1.1794 6.609161593838423 12.982828669292244 11.277206761460764 -5 -5 0
313 1 2 -1.1794 5.622938683295697 15.861047569358234 11.33142566495664 -1 1 1
314 1 1 0.5897 5.674630626247296 15.485340115760325 12.210288491026475 -1 1 1
374 1 1 0.5897 8.704625358696404 12.636656916654074 13.189912746340571 5 2 0
267 1 1 0.5897 8.964662878606577 14.666729794631465 13.339570712973064 -2 -1 0
265 1 2 -1.1794 8.736330362557274 14.18448977106176 12.54487987515335 -2 -1 0
292 1 2 -1.1794 8.303768124627375 13.373595770677213 16.369320083165505 -1 -1 2
240 1 1 0.5897 6.128533616202708 13.802282139212782 11.159956556547272 -5 -5 0
293 1 1 0.5897 7.795753336370164 14.18040342592399 16.28428435259864 -1 -1 2
732 1 1 0.5897 5.853342732377085 15.051056918687513 17.08809599169359 3 0 -5
294 1 1 0.5897 8.659777391649941 13.406631201298934 17.25724456812039 -1 -1 2
253 1 2 -1.1794 6.328258951423231 14.758545035559631 20.26568247860141 -1 5 -6
255 1 1 0.5897 6.382259912786911 14.31797838957812 21.113748087875436 -1 5 -6
817 1 2 -1.1794 9.03009749925948 15.220901299723657 21.11107401649765 1 -1 -1
730 1 2 -1.1794 6.418579011895222 15.552340883918573 16.500319089088176 3 0 -5
127 1 2 -1.1794 5.679261723656593 12.855940364931392 17.759815649221448 1 -3 -4
731 1 1 0.5897 6.4908642685199895 16.41299638338758 16.91300476863991 3 0 -5
818 1 1 0.5897 8.102784513303334 15.166211876981388 20.88012425868401 1 -1 -1
129 1 1 0.5897 6.522681364380228 12.422722903221336 17.628634946377275 1 -3 -4
254 1 1 0.5897 6.367222239657473 14.04938477421976 19.62391971090174 -1 5 -6
192 1 1 0.5897 8.912343164918868 16.56837687831394 17.34571931321712 6 5 -4
128 1 1 0.5897 5.137629227793944 12.199186735642902 18.197460045566316 1 -3 -4
318 1 1 0.5897 4.853720397435997 19.488472089634932 4.382125531586797 -4 -4 2
283 1 2 -1.1794 6.456831803910263 20.63526421150255 1.8334778789832764 3 -1 -2
675 1 1 0.5897 6.854862649891786 17.722391122408887 3.860837902117712 -3 -4 -2