LAMMPS data file via write_data, version 15 Apr 2020, timestep = 500000

1008 atoms
2 atom types
672 bonds
1 bond types
336 angles
1 angle types

-3.2484263612279758e+00 1.4858425361226743e+01 xlo xhi
-1.4889305885507195e-01 2.2728892058856008e+01 ylo yhi
-9.8932587263795474e-02 1.9328930587263965e+01 zlo zhi
-3.1931025671001462e-01 -6.6233363835051779e+00 -2.7558804866405426e-02 xy xz yz

Masses

1 1.008
2 15.999

Pair Coeffs # lj/cut/tip4p/long/omp

1 0 0
2 0.21084 3.1668

Bond Coeffs # harmonic/omp

1 450 0.9572

Angle Coeffs # harmonic/omp

1 55 104.52

Atoms # full

837 279 1 5.8970000000000000e-01 -6.2154546863180729e+00 7.7459082604349732e+00 9.1418828220898245e+00 1 0 0
68 23 1 5.8970000000000000e-01 -3.0535231322385976e+00 2.0889885744140696e-01 7.4761671683880344e+00 0 0 0
33 11 1 5.8970000000000000e-01 8.3565001285522311e-01 7.0509184341296793e-01 2.0809118177844481e+00 0 0 0
7 3 2 -1.1794000000000000e+00 -1.1293443922357211e+00 6.4339569023800536e+00 4.9826621276549865e+00 0 0 0
8 3 1 5.8970000000000000e-01 -9.8481451411817400e-01 5.9013978392544661e+00 5.7648036494042820e+00 0 0 0
9 3 1 5.8970000000000000e-01 -1.2130279590290032e+00 5.7985346452059545e+00 4.2716980201391967e+00 0 0 0
10 4 2 -1.1794000000000000e+00 1.6120318913237859e+00 6.4245296083301158e+00 4.9259692565383837e+00 0 0 0
11 4 1 5.8970000000000000e-01 1.7259450839209263e+00 5.8058207757032019e+00 5.6474057037445089e+00 0 0 0
12 4 1 5.8970000000000000e-01 6.7706352787501567e-01 6.6294944857376450e+00 4.9311631138210315e+00 0 0 0
482 161 1 5.8970000000000000e-01 -8.8158949660378771e-01 7.3717810602606376e-02 9.7107995727036223e-01 1 1 0
292 98 2 -1.1794000000000000e+00 -5.4276586813447407e+00 1.0110653595926481e+01 7.2450142014349508e+00 1 0 0
18 6 1 5.8970000000000000e-01 5.0825853102074339e+00 3.9483515594476173e+00 -6.2997409043234337e-02 0 0 0
21 7 1 5.8970000000000000e-01 1.2941226802068460e+00 2.3097772814167503e+00 7.6213023348268283e-01 0 0 0
36 12 1 5.8970000000000000e-01 -4.1298650625864047e-01 7.8832427979081376e-01 7.2838113543872334e+00 0 0 0
31 11 2 -1.1794000000000000e+00 1.4681271391908717e+00 1.3973596214854573e+00 2.2729340627320327e+00 0 0 0
32 11 1 5.8970000000000000e-01 1.1772851147830909e+00 1.7630108522031660e+00 3.1084628661252069e+00 0 0 0
222 74 1 5.8970000000000000e-01 2.8789972822378211e+00 1.0796824658260617e+01 2.9702226240394971e+00 0 0 0
34 12 2 -1.1794000000000000e+00 3.8771681851631212e-01 1.2824903149555225e+00 7.1080320946949387e+00 0 0 0
35 12 1 5.8970000000000000e-01 4.9894020963724856e-01 1.8405670621472037e+00 7.8777182396314318e+00 0 0 0
67 23 2 -1.1794000000000000e+00 -2.3132659904920243e+00 5.6255483083294133e-01 7.9691517620016610e+00 0 0 0
43 15 2 -1.1794000000000000e+00 -5.0117263422426572e-01 4.8596266722824648e+00 7.3083624357218255e+00 0 0 0
44 15 1 5.8970000000000000e-01 -6.5811994222224046e-01 5.2024443819537103e+00 8.1882552920951959e+00 0 0 0
45 15 1 5.8970000000000000e-01 3.6488521114558142e-01 4.4552184079271129e+00 7.3591819993681256e+00 0 0 0
46 16 2 -1.1794000000000000e+00 1.6725475559797331e+00 4.8062174887307663e+00 2.6888132667371147e+00 0 0 0
47 16 1 5.8970000000000000e-01 1.9405515475896054e+00 5.2749932415158716e+00 1.8983681809424067e+00 0 0 0
48 16 1 5.8970000000000000e-01 1.5796445182228565e+00 5.4891258982131905e+00 3.3531005700407168e+00 0 0 0
52 18 2 -1.1794000000000000e+00 3.5374966025734063e+00 2.9576671216034649e+00 3.5321124989572996e+00 0 0 0
402 134 1 5.8970000000000000e-01 1.3127666985505779e+00 5.4807690959571220e-02 8.2319856834800280e+00 0 1 0
54 18 1 5.8970000000000000e-01 2.9979772040630341e+00 3.6188435580947145e+00 3.0986489699032536e+00 0 0 0
55 19 2 -1.1794000000000000e+00 -9.8046549683815687e-01 4.1834575991764416e+00 3.3623676992752953e+00 0 0 0
56 19 1 5.8970000000000000e-01 -1.4933925927315770e+00 3.5643690856503341e+00 2.8429955365929938e+00 0 0 0
57 19 1 5.8970000000000000e-01 -2.0771662234758653e-01 4.3634808892406083e+00 2.8267817450896597e+00 0 0 0
58 20 2 -1.1794000000000000e+00 2.1001110494627842e+00 4.1609687712958507e+00 6.6202465376451594e+00 0 0 0
59 20 1 5.8970000000000000e-01 1.9055648940258822e+00 3.5474741331920039e+00 5.9117421234487608e+00 0 0 0
303 101 1 5.8970000000000000e-01 -1.9751916622716057e+00 1.1241672123596654e+01 6.8734963750676501e+00 1 0 0
64 22 2 -1.1794000000000000e+00 1.9227379644863030e+00 6.7781008314209483e+00 8.1769032438665867e+00 0 0 0
696 232 1 5.8970000000000000e-01 4.4912895530023418e+00 1.0681047970003553e+01 -5.7651796309832144e-02 0 0 1
224 75 1 5.8970000000000000e-01 -5.6361296330183319e-01 1.1121485675966650e+01 3.5931505875243674e+00 0 0 0
209 70 1 5.8970000000000000e-01 3.1275509337847742e+00 1.0927011909535718e+01 7.1619461735212617e+00 0 0 0
189 63 1 5.8970000000000000e-01 2.0962237181676922e+00 1.0383119134420129e+01 2.8340942175334650e-02 0 0 0
69 23 1 5.8970000000000000e-01 -2.6422497910671301e+00 1.3802739816712430e+00 8.3424568023587167e+00 0 0 0
669 223 1 5.8970000000000000e-01 -5.3831820678449471e+00 1.9273633778540635e+00 9.1868225008779589e+00 1 0 0
114 38 1 5.8970000000000000e-01 -3.4321383094796007e+00 5.6979765150226696e+00 1.5678632741581082e+00 1 0 0
76 26 2 -1.1794000000000000e+00 6.5947380843306891e-01 2.2609409881022042e+00 4.6511462343956351e+00 0 0 0
77 26 1 5.8970000000000000e-01 4.4854782355234912e-01 1.8069856069257826e+00 5.4671154238898865e+00 0 0 0
78 26 1 5.8970000000000000e-01 -9.2062169922999898e-02 2.8323078312958470e+00 4.4933560404898119e+00 0 0 0
70 24 2 -1.1794000000000000e+00 3.9499195326733729e+00 4.8612154070046659e-01 1.5359739784749677e+00 0 0 0
85 29 2 -1.1794000000000000e+00 -3.0470944652778309e+00 1.1674014384784659e+00 4.8659791092559939e+00 1 0 0
86 29 1 5.8970000000000000e-01 -3.0084764056671167e+00 1.5466235406945830e+00 3.9878989184079572e+00 1 0 0
87 29 1 5.8970000000000000e-01 -3.9653412447155283e+00 9.2330713904238837e-01 4.9819727076298514e+00 1 0 0
123 41 1 5.8970000000000000e-01 -3.6530427635247280e+00 2.5972926693640983e+00 2.5335038455033154e+00 1 0 0
98 33 1 5.8970000000000000e-01 -4.1632216494592544e+00 5.2725777402214487e+00 8.3898138370581261e+00 1 0 0
173 58 1 5.8970000000000000e-01 2.7389217980403808e+00 7.6195321748570040e+00 5.2313027425726188e+00 0 0 0
109 37 2 -1.1794000000000000e+00 -4.3460594606765151e+00 6.4520097747941385e+00 7.1341040370569910e+00 1 0 0
110 37 1 5.8970000000000000e-01 -4.1864196334585966e+00 6.1146727252033601e+00 6.2525853695280764e+00 1 0 0
302 101 1 5.8970000000000000e-01 -2.6962302383388903e+00 1.0117104467790387e+01 6.1614120688121554e+00 1 0 0
112 38 2 -1.1794000000000000e+00 -3.2605991303018724e+00 6.4282550116272805e+00 2.1623806984190641e+00 1 0 0
113 38 1 5.8970000000000000e-01 -3.4795417206954280e+00 6.0880581940868730e+00 3.0299663650940776e+00 1 0 0
174 58 1 5.8970000000000000e-01 3.2209803268597152e+00 8.9960339638008122e+00 4.8254374393839194e+00 0 0 0
121 41 2 -1.1794000000000000e+00 -2.7544473450942903e+00 2.2702874884104469e+00 2.4910066031366722e+00 1 0 0
122 41 1 5.8970000000000000e-01 -2.6926046600865443e+00 1.8486918583690182e+00 1.6338271895274550e+00 1 0 0
6 2 1 5.8970000000000000e-01 3.3565396621883976e+00 1.7243429250630569e+00 4.6761985333741185e+00 0 0 0
66 22 1 5.8970000000000000e-01 2.7301239151159575e+00 6.4405888821605224e+00 7.7888878186623689e+00 0 0 0
527 176 1 5.8970000000000000e-01 4.1656638147837439e+00 1.6492752016719250e+00 1.7648984305897580e-01 0 0 1
126 42 1 5.8970000000000000e-01 -4.6509885538976734e+00 3.0893245215905956e+00 7.3495341450896436e+00 1 0 0
133 45 2 -1.1794000000000000e+00 -3.0797773158226778e+00 3.5263012252354859e+00 6.6369727976273820e+00 1 0 0
134 45 1 5.8970000000000000e-01 -2.9336555123172832e+00 2.7300391563074058e+00 6.1262304951877660e+00 1 0 0
135 45 1 5.8970000000000000e-01 -2.2056874297004971e+00 3.7919692606445210e+00 6.9224524769268978e+00 1 0 0
145 49 2 -1.1794000000000000e+00 -5.4305657832450227e-01 6.9805197441766724e+00 1.2881244782922321e+00 1 0 0
146 49 1 5.8970000000000000e-01 -1.3233042458014694e+00 6.8293130786841889e+00 1.8217401067642869e+00 1 0 0
147 49 1 5.8970000000000000e-01 -8.6079130629566736e-01 7.4756791527895787e+00 5.3310161339029738e-01 1 0 0
157 53 2 -1.1794000000000000e+00 -3.9706846229805564e+00 5.2817686147308169e+00 4.6433855597125033e+00 1 0 0
111 37 1 5.8970000000000000e-01 -5.2821270927723596e+00 6.6513977941681031e+00 7.1490482861272993e+00 1 0 0
60 20 1 5.8970000000000000e-01 2.8739616487939164e+00 3.7952027381084270e+00 7.0485844281793488e+00 0 0 0
124 42 2 -1.1794000000000000e+00 -5.4661043327417840e+00 2.6338948444470867e+00 7.5603294113104358e+00 1 0 0
159 53 1 5.8970000000000000e-01 -3.6194303514883890e+00 4.5914933176209809e+00 5.2058007193060725e+00 1 0 0
221 74 1 5.8970000000000000e-01 4.2115055539275410e+00 1.0276395838103971e+01 3.4653382944056723e+00 0 0 0
290 97 1 5.8970000000000000e-01 -2.3813544814278016e+00 1.0625968182691141e+01 2.5517758482851258e+00 1 0 0
301 101 2 -1.1794000000000000e+00 -2.8435436695262766e+00 1.0964437598714662e+01 6.5815940750659285e+00 1 0 0
188 63 1 5.8970000000000000e-01 1.0723878514149747e+00 9.8240468130648733e+00 9.9351351189585302e-01 0 0 0
16 6 2 -1.1794000000000000e+00 5.4292191756150761e+00 4.8392282332999201e+00 -1.4498572922542243e-02 0 0 0
191 64 1 5.8970000000000000e-01 4.6049687693762736e-01 9.8820757326308293e+00 8.8163507941643946e+00 0 0 0
332 111 1 5.8970000000000000e-01 -2.6462682655503502e+00 9.2914628678715019e+00 7.3746118653591008e-01 1 0 0
199 67 2 -1.1794000000000000e+00 9.8267833958291129e-01 8.7573655733318070e+00 2.5967405612942689e+00 0 0 0
200 67 1 5.8970000000000000e-01 4.1608197550775744e-01 8.0939155114932255e+00 2.2031596946450365e+00 0 0 0
201 67 1 5.8970000000000000e-01 1.8663380206806108e+00 8.5111928006438795e+00 2.3231161794625441e+00 0 0 0
202 68 2 -1.1794000000000000e+00 2.9440532854814155e-01 8.6903487680871550e+00 7.0963059688967496e+00 0 0 0
203 68 1 5.8970000000000000e-01 -5.7713215308647603e-01 8.3800600528532190e+00 7.3421337351733031e+00 0 0 0
204 68 1 5.8970000000000000e-01 8.8347589839227159e-01 7.9822613900189774e+00 7.3566131614054200e+00 0 0 0
522 174 1 5.8970000000000000e-01 2.1196137717377752e+00 5.3718691376631780e+00 9.2015889073943793e+00 0 0 0
291 97 1 5.8970000000000000e-01 -3.8731581185995458e+00 1.0493319173757893e+01 2.7728656381145935e+00 1 0 0
163 55 2 -1.1794000000000000e+00 -2.1302670544392206e+00 1.0675405026979869e+00 1.1503727240670368e-01 1 0 0
71 24 1 5.8970000000000000e-01 3.1611943014026163e+00 7.1037957048159706e-01 2.0299517309296808e+00 0 0 0
235 79 2 -1.1794000000000000e+00 -2.1399428646178560e+00 8.0380306458175532e+00 7.8512762890485064e+00 0 0 0
236 79 1 5.8970000000000000e-01 -3.0062767117125166e+00 7.8055375461052865e+00 7.5173553793232797e+00 0 0 0
237 79 1 5.8970000000000000e-01 -2.3029995341660028e+00 8.7578478728263924e+00 8.4608179777358572e+00 0 0 0
238 80 2 -1.1794000000000000e+00 3.5684311210633544e+00 7.9693955968463097e+00 1.7619390863458653e+00 0 0 0
239 80 1 5.8970000000000000e-01 3.8605146662725565e+00 8.5649349359720617e+00 1.0717442180418251e+00 0 0 0
240 80 1 5.8970000000000000e-01 3.3598467204722628e+00 7.1552356097308181e+00 1.3039013135206452e+00 0 0 0
244 82 2 -1.1794000000000000e+00 5.0470877865691577e-01 1.0344740100759417e+01 4.8219212398965814e+00 0 0 0
245 82 1 5.8970000000000000e-01 7.2748418377439961e-01 9.8016582066898295e+00 4.0657623490670369e+00 0 0 0
246 82 1 5.8970000000000000e-01 4.8778401621550521e-01 9.7344777303322463e+00 5.5591823302417209e+00 0 0 0
253 85 2 -1.1794000000000000e+00 -2.9407924068386451e+00 8.7482594678977179e+00 4.6829358621590629e+00 1 0 0
254 85 1 5.8970000000000000e-01 -2.2808560021830759e+00 8.0613506964454054e+00 4.7766386541740058e+00 1 0 0
255 85 1 5.8970000000000000e-01 -2.9520975708245580e+00 8.9438433551772505e+00 3.7459434382669103e+00 1 0 0
220 74 2 -1.1794000000000000e+00 3.3087306730311932e+00 1.0431206000543943e+01 3.7434082372346555e+00 0 0 0
289 97 2 -1.1794000000000000e+00 -3.1280532908187109e+00 1.0059878708967700e+01 2.3565688538972824e+00 1 0 0
602 201 1 5.8970000000000000e-01 -3.6422112038251647e-01 5.4113154120512421e+00 4.0214521466953035e-01 1 0 1
257 86 1 5.8970000000000000e-01 -4.7853608371393008e+00 8.5556501810354622e+00 4.8958542910402967e+00 1 0 0
5 2 1 5.8970000000000000e-01 2.7105106170043736e+00 4.8660379341553200e-01 5.2614979168939842e+00 0 0 0
293 98 1 5.8970000000000000e-01 -4.5051763507438665e+00 1.0329367458772740e+01 7.1129643108876097e+00 1 0 0
294 98 1 5.8970000000000000e-01 -5.4326711043235889e+00 9.5486492614260463e+00 8.0198835212121260e+00 1 0 0
53 18 1 5.8970000000000000e-01 4.3046007195824760e+00 2.8656627938567278e+00 2.9668482859256735e+00 0 0 0
97 33 2 -1.1794000000000000e+00 -4.2047094484204797e+00 4.7641109057694759e+00 9.1997872515991066e+00 1 0 0
158 53 1 5.8970000000000000e-01 -4.6217486911820691e+00 4.8394621198497889e+00 4.0988016741737479e+00 1 0 0
4 2 2 -1.1794000000000000e+00 3.4107638145715633e+00 1.1203459300407894e+00 5.4168059793841516e+00 0 0 0
588 196 1 5.8970000000000000e-01 -1.6427463257139265e+00 6.6473935870092271e+00 9.2291605907536365e+00 0 0 0
331 111 2 -1.1794000000000000e+00 -2.1279433683125757e+00 8.8522112908008328e+00 6.3072250897080628e-02 1 0 0
401 134 1 5.8970000000000000e-01 2.4556217711410384e+00 1.2492029448658395e-01 9.2221479562885733e+00 0 1 0
172 58 2 -1.1794000000000000e+00 3.3264330189492832e+00 8.3255944823638934e+00 5.5004380900508281e+00 0 0 0
65 22 1 5.8970000000000000e-01 2.1937801847939453e+00 7.5662867411348760e+00 8.6474886736101357e+00 0 0 0
606 202 1 5.8970000000000000e-01 -6.1335387460213688e+00 4.5430917773195825e+00 9.4475542330624229e+00 1 0 0
82 28 2 -1.1794000000000000e+00 2.4112111737688808e+00 6.0433107410367741e+00 2.7912147937252668e-01 0 0 0
835 279 2 -1.1794000000000000e+00 -5.6377898872400323e+00 8.3553277808811703e+00 9.6012509343934642e+00 1 0 0
187 63 2 -1.1794000000000000e+00 1.1545547481293839e+00 1.0254869871928681e+01 1.4264174078045083e-01 0 0 0
22 8 2 -1.1794000000000000e+00 6.9161679807079668e-01 2.6622005277797611e+00 9.4128508458400617e+00 0 0 0
528 176 1 5.8970000000000000e-01 3.0849739658996995e+00 2.6749017952860847e+00 -9.1701502149809030e-02 0 0 1
676 226 2 -1.1794000000000000e+00 3.0999833950815892e-01 8.7857617470450311e+00 1.4861679992300919e+01 0 0 0
510 170 1 5.8970000000000000e-01 1.8332006506922435e-01 1.1351472169008650e+00 1.5351921332492489e+01 0 0 0
987 329 1 5.8970000000000000e-01 -3.2077897028255031e+00 -2.7219879797887727e-02 1.1473073984403809e+01 1 1 0
629 210 1 5.8970000000000000e-01 -8.6563167841629234e+00 3.1552793154438663e+00 1.6969001199707542e+01 1 0 0
83 28 1 5.8970000000000000e-01 -4.7919454330928533e+00 6.5359760216588825e+00 1.9150835736487050e+01 0 0 -1
630 210 1 5.8970000000000000e-01 -8.3118054312734628e+00 1.7648355527100295e+00 1.6479281823946380e+01 1 0 0
523 175 2 -1.1794000000000000e+00 -2.2071551480043112e+00 2.9376278116077112e+00 1.0002290751781512e+01 0 0 0
164 55 1 5.8970000000000000e-01 -8.2924378586312333e+00 1.5556241872736296e+00 1.8881213521478632e+01 1 0 -1
524 175 1 5.8970000000000000e-01 -2.8598442038146250e+00 3.5754444081344636e+00 9.7136229518394011e+00 0 0 0
616 206 2 -1.1794000000000000e+00 -6.9193851636412669e+00 6.1070027420250703e+00 1.2005492893502282e+01 1 0 0
569 190 1 5.8970000000000000e-01 -1.0265377860485372e+00 6.3298857939238600e+00 1.8424822261732444e+01 0 0 0
618 206 1 5.8970000000000000e-01 -6.9725248242607707e+00 5.5150453560466950e+00 1.1255149060650915e+01 1 0 0
695 232 1 5.8970000000000000e-01 -2.7656533772655392e+00 9.8099322488121530e+00 1.8284564923034548e+01 0 0 0
511 171 2 -1.1794000000000000e+00 -4.1167548491578412e+00 6.3853847647684114e+00 1.5202479345762201e+01 0 0 0
512 171 1 5.8970000000000000e-01 -4.6567601977394109e+00 7.1067917111417378e+00 1.4879847577020938e+01 0 0 0
513 171 1 5.8970000000000000e-01 -4.2494296052181255e+00 5.6829384888054353e+00 1.4565948094177985e+01 0 0 0
514 172 2 -1.1794000000000000e+00 -1.2513106716082942e+00 6.5127512651214623e+00 1.4794416338926455e+01 0 0 0
515 172 1 5.8970000000000000e-01 -2.1927103988153482e+00 6.6858685505236091e+00 1.4790596184122226e+01 0 0 0
516 172 1 5.8970000000000000e-01 -8.4770943994316272e-01 7.3806520419181947e+00 1.4798762378998417e+01 0 0 0
593 198 1 5.8970000000000000e-01 -7.6354728094925033e+00 6.0408112888560994e-01 1.4835436319721609e+01 1 0 0
575 192 1 5.8970000000000000e-01 1.1319202636920660e+00 -2.5652243351334740e-03 1.1615597951049393e+01 0 0 0
724 242 2 -1.1794000000000000e+00 5.9686810460899198e-01 1.0876295920249422e+01 1.3251221825967841e+01 0 0 0
571 191 2 -1.1794000000000000e+00 -5.5708877802115166e+00 3.1700149598220101e-01 1.7964635122484349e+01 0 0 0
84 28 1 5.8970000000000000e-01 -3.7655435820673913e+00 5.4242783851187184e+00 1.9101111772910521e+01 0 0 -1
793 265 2 -1.1794000000000000e+00 -6.0472649075299145e+00 9.7314374356931488e+00 1.2027985477572301e+01 1 0 0
535 179 2 -1.1794000000000000e+00 -2.1778055003897947e+00 1.2540675496600133e+00 1.2299228660396855e+01 0 0 0
536 179 1 5.8970000000000000e-01 -2.5183783930534593e+00 1.5905462543789817e+00 1.3128201133602687e+01 0 0 0
537 179 1 5.8970000000000000e-01 -2.2096209918292438e+00 2.0035667626322491e+00 1.1704690414728727e+01 0 0 0
538 180 2 -1.1794000000000000e+00 -3.3080922562090058e+00 1.0781173304658773e+00 1.6899384694682041e+01 0 0 0
539 180 1 5.8970000000000000e-01 -2.9311684537547733e+00 1.6718612711235181e+00 1.7548643733627564e+01 0 0 0
540 180 1 5.8970000000000000e-01 -4.1935964990293408e+00 9.0432509622595925e-01 1.7218783294353909e+01 0 0 0
547 183 2 -1.1794000000000000e+00 -3.7122024058963525e+00 4.6358640810116869e+00 1.7227867468950159e+01 0 0 0
548 183 1 5.8970000000000000e-01 -3.8598221990508574e+00 5.3806020021243768e+00 1.6644955410696674e+01 0 0 0
549 183 1 5.8970000000000000e-01 -4.4449404410727347e+00 4.0453451695964580e+00 1.7053147205901944e+01 0 0 0
550 184 2 -1.1794000000000000e+00 -1.5502411238476734e+00 5.2523748979843488e+00 1.2362335343016287e+01 0 0 0
551 184 1 5.8970000000000000e-01 -1.1710010865294718e+00 5.6855869612578465e+00 1.3126967647554682e+01 0 0 0
552 184 1 5.8970000000000000e-01 -2.4826376526067775e+00 5.1790283231431973e+00 1.2566128353727528e+01 0 0 0
556 186 2 -1.1794000000000000e+00 3.6783233752012173e-01 3.2670284925518942e+00 1.2859736267443633e+01 0 0 0
557 186 1 5.8970000000000000e-01 4.5858487364603392e-02 2.5527681505130646e+00 1.3409716433362870e+01 0 0 0
558 186 1 5.8970000000000000e-01 -4.1246411174608838e-01 3.7816534078259019e+00 1.2653720222650835e+01 0 0 0
559 187 2 -1.1794000000000000e+00 -4.1411089645642614e+00 4.3899907104112881e+00 1.3342116026294168e+01 0 0 0
560 187 1 5.8970000000000000e-01 -4.9454042759481256e+00 4.0492076558479608e+00 1.2950938356483480e+01 0 0 0
561 187 1 5.8970000000000000e-01 -3.8112527029634187e+00 3.6693199314148495e+00 1.3878773901620944e+01 0 0 0
562 188 2 -1.1794000000000000e+00 -1.1756490530114296e+00 4.1692986194126949e+00 1.6612417213331067e+01 0 0 0
563 188 1 5.8970000000000000e-01 -1.0937356938019596e+00 4.9056932558764883e+00 1.6006378352927999e+01 0 0 0
564 188 1 5.8970000000000000e-01 -1.9522086911881509e+00 4.3727304521644710e+00 1.7133927303018144e+01 0 0 0
24 8 1 5.8970000000000000e-01 1.3453068754128883e+00 3.3097007707065349e+00 9.6764869690001447e+00 0 0 0
805 269 2 -1.1794000000000000e+00 -5.6823227685988593e+00 1.0855262587845553e+01 1.5947165286410465e+01 1 0 0
568 190 2 -1.1794000000000000e+00 -8.7061840673141144e-01 7.1615191781352179e+00 1.7977249508479566e+01 0 0 0
99 33 1 5.8970000000000000e-01 -4.1239104717328843e+00 5.4154625935973657e+00 9.8965242758727001e+00 1 0 0
678 226 1 5.8970000000000000e-01 3.6331730348257085e-01 9.5263960471252975e+00 1.4257636642304032e+01 0 0 0
692 231 1 5.8970000000000000e-01 -1.3093492090599701e+00 1.0379225201005816e+01 9.6271917935833660e+00 0 0 0
580 194 2 -1.1794000000000000e+00 -2.5370690135058296e+00 2.4523067851011326e+00 1.4810108460356551e+01 0 0 0
581 194 1 5.8970000000000000e-01 -2.9239210304909968e+00 1.9230938058827294e+00 1.5507691296065818e+01 0 0 0
582 194 1 5.8970000000000000e-01 -1.8432504851768268e+00 2.9496662873438688e+00 1.5242906405275930e+01 0 0 0
797 266 1 5.8970000000000000e-01 -7.2144044889520851e+00 1.0678683108888734e+01 1.6944145097163279e+01 1 0 0
587 196 1 5.8970000000000000e-01 -1.4732500059136000e+00 5.7582133743243649e+00 1.0442667039721929e+01 0 0 0
589 197 2 -1.1794000000000000e+00 -5.7262620325080205e+00 9.7072988886522638e-01 1.4726599494684713e+01 1 0 0
590 197 1 5.8970000000000000e-01 -5.5140122496167354e+00 1.6884433408230000e+00 1.5323269133276359e+01 1 0 0
576 192 1 5.8970000000000000e-01 -9.6600255744419300e-02 8.6928064730468835e-01 1.1765435400058887e+01 0 0 0
758 253 1 5.8970000000000000e-01 -5.4934178339212698e+00 9.4480436953696358e+00 1.4991648171617664e+01 1 0 0
741 247 1 5.8970000000000000e-01 -5.6215681039671672e+00 8.7367601232403747e+00 1.8414856881895595e+01 0 0 0
798 266 1 5.8970000000000000e-01 -8.1593142294794294e+00 9.5214309048577075e+00 1.6700030484683694e+01 1 0 0
613 205 2 -1.1794000000000000e+00 -7.4145092487683382e+00 6.4642761208460717e+00 1.7051822628861341e+01 1 0 0
614 205 1 5.8970000000000000e-01 -7.3699398276418391e+00 5.7372433613924203e+00 1.7672855035849185e+01 1 0 0
615 205 1 5.8970000000000000e-01 -7.0303105644411366e+00 6.1164369241741960e+00 1.6246957811273113e+01 1 0 0
807 269 1 5.8970000000000000e-01 -4.9259181499642049e+00 1.1228953115759413e+01 1.6399144696940166e+01 1 0 0
795 265 1 5.8970000000000000e-01 -5.9746349007349897e+00 9.3436777836260934e+00 1.1155809570436618e+01 1 0 0
986 329 1 5.8970000000000000e-01 -4.4623096588198932e+00 1.3538737372600665e-01 1.0641666483520869e+01 1 1 0
625 209 2 -1.1794000000000000e+00 -6.0955614795946058e+00 2.5806780665644364e+00 1.2360309403211085e+01 1 0 0
626 209 1 5.8970000000000000e-01 -5.8434759388375284e+00 1.8783995047686675e+00 1.2959853284305900e+01 1 0 0
23 8 1 5.8970000000000000e-01 7.2171933808427702e-01 1.9969977995609891e+00 1.0100496257387974e+01 0 0 0
586 196 2 -1.1794000000000000e+00 -1.0425974994132443e+00 6.0173538385031344e+00 9.6279095128370678e+00 0 0 0
796 266 2 -1.1794000000000000e+00 -8.0209308325703343e+00 1.0278463685599718e+01 1.7269190550918346e+01 1 0 0
762 254 1 5.8970000000000000e-01 -7.6150261269832580e+00 8.5489337515370760e+00 1.4785685381463377e+01 1 0 0
637 213 2 -1.1794000000000000e+00 -5.7834442921022848e+00 3.2360699850711865e+00 1.6234218535205169e+01 1 0 0
638 213 1 5.8970000000000000e-01 -6.6006021142708224e+00 2.8474074171519126e+00 1.6546503098286113e+01 1 0 0
639 213 1 5.8970000000000000e-01 -6.0571430740282546e+00 3.8709448422674475e+00 1.5572246838647475e+01 1 0 0
649 217 2 -1.1794000000000000e+00 -4.0852263286222090e+00 6.7699843964153983e+00 1.1122331552657794e+01 1 0 0
650 217 1 5.8970000000000000e-01 -3.4846092873956684e+00 7.4176615696400079e+00 1.1490956354975591e+01 1 0 0
651 217 1 5.8970000000000000e-01 -4.8222429251325742e+00 6.7512383629279329e+00 1.1732988167749463e+01 1 0 0
661 221 2 -1.1794000000000000e+00 -6.9926569762764261e+00 5.0992110818725545e+00 1.4511094100948581e+01 1 0 0
691 231 2 -1.1794000000000000e+00 -2.2343797815564197e+00 1.0139495750126471e+01 9.6825747504662054e+00 0 0 0
663 221 1 5.8970000000000000e-01 -6.8830052423012589e+00 5.5773253662223796e+00 1.3689069708114486e+01 1 0 0
757 253 2 -1.1794000000000000e+00 -5.5648990500643709e+00 8.6074483434523472e+00 1.4539466179104656e+01 1 0 0
668 223 1 5.8970000000000000e-01 -5.8985847914851703e+00 1.6561965042243312e+00 1.0584408362436921e+01 1 0 0
628 210 2 -1.1794000000000000e+00 -8.1383833779975845e+00 2.3814487047951203e+00 1.7190559463607769e+01 1 0 0
591 197 1 5.8970000000000000e-01 -5.1359916197244386e+00 2.6242871758849767e-01 1.4983564656299638e+01 1 0 0
20 7 1 5.8970000000000000e-01 -5.6772094576265886e+00 2.0349043961670299e+00 1.8737525390398947e+01 0 0 -1
165 55 1 5.8970000000000000e-01 -9.2466751656061152e+00 3.9123118786012556e-01 1.9040786115397836e+01 1 0 -1
693 231 1 5.8970000000000000e-01 -2.3164324679680592e+00 9.6918076151707684e+00 1.0524703547370887e+01 0 0 0
750 250 1 5.8970000000000000e-01 -3.2450075034042860e+00 1.0483437234514888e+01 1.3937233328209730e+01 0 0 0
574 192 2 -1.1794000000000000e+00 5.2871197297409145e-01 5.4750619342127915e-01 1.1115944010725247e+01 0 0 0
703 235 2 -1.1794000000000000e+00 -2.1262594537049067e+00 8.5815959536462998e+00 1.1900703038121540e+01 0 0 0
704 235 1 5.8970000000000000e-01 -1.2160420905437113e+00 8.2978161409485427e+00 1.1815786914010838e+01 0 0 0
705 235 1 5.8970000000000000e-01 -2.1752812641675638e+00 8.9734597984962665e+00 1.2772687255251258e+01 0 0 0
706 236 2 -1.1794000000000000e+00 -3.0444192008497999e+00 8.8512185924151510e+00 1.6792923214520226e+01 0 0 0
707 236 1 5.8970000000000000e-01 -3.7754576634492443e+00 8.3936303203395415e+00 1.7208301848180191e+01 0 0 0
708 236 1 5.8970000000000000e-01 -2.2816871153477041e+00 8.3037520383280974e+00 1.6979105376071324e+01 0 0 0
627 209 1 5.8970000000000000e-01 -7.0220621621375940e+00 2.7336023114380952e+00 1.2546049746632303e+01 1 0 0
759 253 1 5.8970000000000000e-01 -5.4595902194148476e+00 8.8235830026333169e+00 1.3612887802286805e+01 1 0 0
572 191 1 5.8970000000000000e-01 -6.3475898291948250e+00 -4.9579376001906442e-02 1.7542226716683135e+01 0 0 0
739 247 2 -1.1794000000000000e+00 -5.3384143600730862e+00 7.8838522630649646e+00 1.8085304150434276e+01 0 0 0
740 247 1 5.8970000000000000e-01 -6.0877771485450811e+00 7.5584428721439219e+00 1.7586656814003511e+01 0 0 0
508 170 2 -1.1794000000000000e+00 5.4949758013867955e-01 9.4223706601883095e-01 1.4488707086394653e+01 0 0 0
742 248 2 -1.1794000000000000e+00 4.1711366862840582e-01 7.7569944650309148e+00 1.1118542995261677e+01 0 0 0
743 248 1 5.8970000000000000e-01 4.2071292894906659e-01 8.6319346852800134e+00 1.0730382848810283e+01 0 0 0
744 248 1 5.8970000000000000e-01 -3.4806222969054959e-02 7.2109788150067020e+00 1.0475301734114682e+01 0 0 0
748 250 2 -1.1794000000000000e+00 -2.5517433655012329e+00 9.9130384185540148e+00 1.4269139787009657e+01 0 0 0
749 250 1 5.8970000000000000e-01 -2.9513522769265075e+00 9.4550609056448902e+00 1.5008717598185511e+01 0 0 0
333 111 1 5.8970000000000000e-01 -8.6450913262903040e+00 9.4821773032276493e+00 1.8803421433053050e+01 1 0 -1
794 265 1 5.8970000000000000e-01 -5.5051789819566537e+00 1.0519187887221552e+01 1.1986147181123734e+01 1 0 0
836 279 1 5.8970000000000000e-01 -4.9454797597211817e+00 7.8026888583419627e+00 9.9637017455661212e+00 1 0 0
526 176 2 -1.1794000000000000e+00 -2.6093712713732287e+00 2.4702541800893894e+00 1.9188226137409409e+01 0 0 0
662 221 1 5.8970000000000000e-01 -7.8320158122581462e+00 4.6489756826778459e+00 1.4416842910410468e+01 1 0 0
667 223 2 -1.1794000000000000e+00 -5.4666619563616026e+00 1.2341473752923033e+00 9.8416254440251389e+00 1 0 0
603 201 1 5.8970000000000000e-01 -6.4371541416381746e+00 4.0943493956158488e+00 1.9258692233348373e+01 1 0 0
760 254 2 -1.1794000000000000e+00 -8.4911294372017299e+00 8.7213011271780552e+00 1.5130778401526115e+01 1 0 0
190 64 2 -1.1794000000000000e+00 5.0270248478703705e-01 1.0265662940342025e+01 9.6923329298063923e+00 0 0 0
525 175 1 5.8970000000000000e-01 -1.3669746682788404e+00 3.3290962073918045e+00 9.7632633521193579e+00 0 0 0
19 7 2 -1.1794000000000000e+00 -5.3035079447980573e+00 2.6916104325719608e+00 1.9325085491836994e+01 0 0 -1
601 201 2 -1.1794000000000000e+00 -7.1422170519147414e+00 4.7318833902277824e+00 1.9146394671871601e+01 1 0 0
731 244 1 5.8970000000000000e-01 -1.2864677076378439e+00 1.1095123477692782e+01 1.5211067114700954e+01 0 0 0
732 244 1 5.8970000000000000e-01 -3.0673367199092061e-01 1.1114409924943896e+01 1.6364892095265716e+01 0 0 0
192 64 1 5.8970000000000000e-01 1.2394016883585472e+00 1.0875421502381874e+01 9.6518956539374479e+00 0 0 0
101 34 1 5.8970000000000000e-01 -9.2316973244006917e+00 4.2774672907575075e+00 1.9281798941753763e+01 1 0 -1
694 232 2 -1.1794000000000000e+00 -2.7824441656845909e+00 9.9656205514144141e+00 1.9228928159783923e+01 0 0 0
223 75 2 -1.1794000000000000e+00 -9.7032674847597933e-01 1.1663057502667733e+01 2.9167999771447226e+00 0 0 0
280 94 2 -1.1794000000000000e+00 -3.5790656459212040e+00 1.3948900301501189e+01 2.2646936421114492e+00 1 0 0
447 149 1 5.8970000000000000e-01 -5.6933441416571053e+00 2.2103262249604981e+01 7.2277501139661000e+00 1 0 0
462 154 1 5.8970000000000000e-01 -5.3179093241323594e+00 1.6858917966190443e+01 6.6246189626551306e+00 1 0 0
340 114 2 -1.1794000000000000e+00 3.3176996877500651e+00 1.6401404333450266e+01 5.0844954222197627e+00 0 0 0
252 84 1 5.8970000000000000e-01 2.7744213032422320e+00 1.4534169599918144e+01 6.1341167626972737e-01 0 0 0
448 150 2 -1.1794000000000000e+00 -3.7417074442495859e+00 2.1626549525772802e+01 2.5225378183173586e+00 1 0 0
407 136 1 5.8970000000000000e-01 4.1329735783533073e+00 1.5137710646467045e+01 2.1457989960067123e+00 0 0 0
690 230 1 5.8970000000000000e-01 2.1526281916121022e+00 1.3045646639294258e+01 9.3781200847051664e+00 0 0 0
756 252 1 5.8970000000000000e-01 -1.8149008879541428e+00 1.4508124132713151e+01 9.4073136734123626e+00 0 0 0
499 167 2 -1.1794000000000000e+00 -2.3766233011249880e+00 1.6770917897835464e+01 4.0180709938960696e-02 1 0 0
318 106 1 5.8970000000000000e-01 -6.5552824934574767e+00 1.4945622477146781e+01 8.9941620003347502e+00 1 0 0
449 150 1 5.8970000000000000e-01 -3.8568033439795792e+00 2.1058381994460206e+01 1.7608555886102486e+00 1 0 0
326 109 1 5.8970000000000000e-01 -3.3552429958412149e+00 1.2040048608371039e+01 5.0154394680452539e+00 1 0 0
390 130 1 5.8970000000000000e-01 3.9853487063566919e+00 1.9207262675476279e+01 4.0180627758769383e+00 0 0 0
265 89 2 -1.1794000000000000e+00 -4.2453828622336180e+00 1.2147078812566908e+01 9.3486964668272172e+00 1 0 0
345 115 1 5.8970000000000000e-01 -1.9943247795140033e+00 2.2693360252840062e+01 4.9711634601173378e+00 0 0 0