LAMMPS data file via write_data, version 30 Jul 2021, timestep = 5750000

864 atoms
2 atom types
576 bonds
1 bond types
288 angles
1 angle types

-0.2812557821531829 18.488828182150925 xlo xhi
0.7602491096852635 22.86892869030991 ylo yhi
-0.3431313972871326 22.556327197289143 zlo zhi

Masses

1 1.00794
2 15.9994

Pair Coeffs # lj/cut/tip4p/long/omp

1 0 0
2 0.21084 3.1668

Bond Coeffs # harmonic/omp

1 450 0.9572

Angle Coeffs # harmonic/omp

1 55 104.52

Atoms # full

338 1 1 0.5897 5.244946356100216 3.5809391442618668 3.773588576228904 -2 1 4
337 1 2 -1.1794 5.627961878313427 4.437393152056634 3.5835864903584977 -2 1 4
339 1 1 0.5897 4.978602076649777 5.066005677669258 3.8989929373108163 -2 1 4
541 1 2 -1.1794 2.0760343265389283 1.393416244097274 1.178990858261101 -5 0 3
688 1 2 -1.1794 2.372618316901526 4.253858060221425 2.274231407753109 1 -3 7
542 1 1 0.5897 2.1617605748180506 2.2386290530043 1.620142164390919 -5 0 3
690 1 1 0.5897 1.5130067156236175 4.647240444179901 2.1238347892511737 1 -3 7
719 1 1 0.5897 7.65939354629418 1.787573793369952 1.3080930051375852 5 6 1
674 1 1 0.5897 2.8669776443128066 3.059695722106252 3.7979674954695826 -5 -4 -3
673 1 2 -1.1794 3.3736000192328515 2.5628004943544687 4.440425282730925 -5 -4 -3
689 1 1 0.5897 2.995843221572865 4.933464054057431 2.0172512330745316 1 -3 7
675 1 1 0.5897 3.204231586245886 3.0040701484440846 5.272835674238388 -5 -4 -3
412 1 2 -1.1794 3.810631429619077 6.135567800327898 5.183420726834132 2 -2 3
284 1 1 0.5897 7.009584526903642 5.384562570881611 2.631704040508266 6 1 0
283 1 2 -1.1794 7.612297098118023 5.940958894545211 2.138267416604145 6 1 0
285 1 1 0.5897 7.572884388935418 5.603067267964386 1.2435067456850026 6 1 0
720 1 1 0.5897 6.545286328387369 0.8507113864999173 0.8919402417141613 5 6 1
44 1 1 0.5897 5.935595139939066 2.6618618123847346 -0.02344782028979192 2 4 -2
610 1 2 -1.1794 5.8292562896599565 1.0071941301603313 4.257509598060573 2 2 -1
611 1 1 0.5897 6.035725440204321 1.1666614066467313 3.3365082251941747 2 2 -1
56 1 1 0.5897 2.331027054659069 0.7859365513071779 5.18196943274094 -3 0 -2
165 1 1 0.5897 8.673384001894819 4.394486083119572 2.676431074781352 -5 4 -1
718 1 2 -1.1794 6.708988396480201 1.6788431932635968 1.3432785869366368 5 6 1
612 1 1 0.5897 4.910185049482312 1.2602060235458497 4.344721717962058 2 2 -1
543 1 1 0.5897 2.456220140454171 1.5355188827631594 0.31205601543929673 -5 0 3
704 1 1 0.5897 0.07431147674753769 1.0499215194213223 1.212313502010032 4 0 -1
122 1 1 0.5897 8.809421273024926 11.377338105300653 2.8512539229400615 2 -4 1
413 1 1 0.5897 3.311751148332877 6.7503410857084925 4.645383212002638 2 -2 3
152 1 1 0.5897 0.03414199435915738 9.465057585332366 0.4876777178610453 2 0 -1
298 1 2 -1.1794 2.3859250640697462 7.735695266007749 3.4725630699797128 -6 0 1
291 1 1 0.5897 8.637806697901382 8.94322368342225 0.5984418788437846 -6 -6 -7
289 1 2 -1.1794 7.70946690789416 9.087447050469061 0.7821418973912193 -6 -6 -7
182 1 1 0.5897 1.5850786557959173 11.08523061230446 4.704077110830372 -1 1 -2
121 1 2 -1.1794 8.027314252123544 10.830256041462906 2.9241179599567704 2 -4 1
736 1 2 -1.1794 2.799826501899999 7.110676181553788 0.8627939930981463 1 -1 0
483 1 1 0.5897 3.2591748561111635 10.554381412626295 1.4098593062071794 -1 3 -2
299 1 1 0.5897 2.4571823740510745 7.212310833436814 2.6742566903735216 -6 0 1
665 1 1 0.5897 8.419650744269514 9.08279858229785 3.727637045720667 4 2 4
777 1 1 0.5897 3.3669153213831198 10.817222279670247 3.8372733158571375 4 -3 3
482 1 1 0.5897 4.179029402116667 9.85347689763736 0.4327877632713091 -1 3 -2
664 1 2 -1.1794 8.474834730201746 8.227266639006125 4.153494242624708 4 2 4
775 1 2 -1.1794 2.6191465336094337 10.509599524540894 3.3248976261787933 4 -3 3
201 1 1 0.5897 6.09429684348854 8.71126851333842 0.25453974726104145 5 -3 0
300 1 1 0.5897 1.4570010109852103 7.699942834529118 3.7008622043255412 -6 0 1
151 1 2 -1.1794 0.4628377017735339 8.650981476263553 0.22347221002576945 2 0 0
776 1 1 0.5897 2.566990713849507 9.572876196971269 3.515040320818787 4 -3 3
199 1 2 -1.1794 5.252432458036951 8.402516324630508 -0.08047574574529087 5 -3 0
481 1 2 -1.1794 3.4752631759266217 10.500692513730142 0.4788792993351162 -1 3 -2
666 1 1 0.5897 8.239359567953393 7.602230175932756 3.4677958374644438 4 2 4
738 1 1 0.5897 2.105733483156756 7.7505313624111745 0.7042714071105056 1 -1 0
737 1 1 0.5897 3.589307255850254 7.520398398403773 0.509021187875984 1 -1 0
290 1 1 0.5897 7.702566249139519 9.64538983554592 1.55993599739584 -6 -6 -7
123 1 1 0.5897 7.316704131284927 11.382842065388171 2.5985287734772533 2 -4 1
450 1 1 0.5897 6.961127492505872 8.86832495667479 5.341311192742656 4 -1 -4
588 1 1 0.5897 4.3796799309173 2.0497881767941806 9.041393670676412 -1 2 6
318 1 1 0.5897 7.399926948792528 5.8124311476955075 10.057585407190608 -6 -7 0
586 1 2 -1.1794 4.674409830203395 2.920564896383774 8.774576629689296 -1 2 6
764 1 1 0.5897 4.392037139581537 3.6876817835786464 10.591691486779002 -5 3 -3
587 1 1 0.5897 5.444048027091392 2.7568658315023993 8.229445430920382 -1 2 6
814 1 2 -1.1794 2.768323172091419 3.9320399734602507 6.99217674450876 -2 10 -3
316 1 2 -1.1794 6.49089767704461 6.111828349338067 10.039568690028716 -6 -7 0
26 1 1 0.5897 8.476221708615926 2.0033208916031207 8.8994307439428 -2 7 7
85 1 2 -1.1794 6.58366990333197 2.4593991441289664 6.6235166680190884 0 6 2
815 1 1 0.5897 3.432443806818213 3.7211485600650067 7.648508426281484 -2 10 -3
445 1 2 -1.1794 9.030574631174924 5.145426782628943 7.865177647161923 2 -2 0
456 1 1 0.5897 0.8736794043061928 3.700218821311499 6.849115399787061 3 -2 -1
816 1 1 0.5897 2.9818885780399698 4.822137397186049 6.712035814734054 -2 10 -3
86 1 1 0.5897 7.457908984772908 2.7500829718523834 6.363681568239703 0 6 2
25 1 2 -1.1794 8.49642059599158 2.8055376071713876 9.421295866920016 -2 7 7
27 1 1 0.5897 8.434370932249458 3.5118373403807284 8.778154631523487 -2 7 7
765 1 1 0.5897 5.234365619473031 4.871469231242258 11.017419961558128 -5 3 -3
454 1 2 -1.1794 -0.06225790078865126 3.9010366031795742 6.847075156639628 3 -2 -1
87 1 1 0.5897 6.2549062852008355 1.9787435462821117 5.8637868819075925 0 6 2
8 1 1 0.5897 -0.08863362139353559 5.787674233165597 6.759162455511158 1 -1 -2
81 1 1 0.5897 -0.01956571668014573 2.2431981504241865 9.989217645880759 4 -1 -4
17 1 1 0.5897 3.2687931494331837 0.8960506277016407 10.380010223538228 -4 4 4
181 1 2 -1.1794 1.0572329635666216 11.235079219508284 5.488445636315842 -2 1 -2
424 1 2 -1.1794 8.157044995835873 11.699989476916265 10.191629076914047 4 -5 2
802 1 2 -1.1794 7.482057393739659 8.790667325552759 10.514957747557071 5 2 -3
829 1 2 -1.1794 8.380360642460358 8.161949295363621 7.954429119088129 3 4 4
823 1 2 -1.1794 1.753358744084219 11.549976389881687 8.099913257901322 1 6 3
824 1 1 0.5897 1.4717804060646833 11.57993781770707 7.185513079594077 1 6 3
297 1 1 0.5897 6.832541252661654 11.109902706824016 5.895490332144748 -1 5 2
414 1 1 0.5897 4.229452941443603 6.683038927758957 5.8476214132257684 2 -2 3
830 1 1 0.5897 8.591761804443347 7.230045867816918 7.897598135256938 3 4 4
567 1 1 0.5897 1.4531342691263238 7.298706549009222 9.860866924558705 1 4 -5
804 1 1 0.5897 7.893553777059912 8.648934428475503 9.662341543032522 5 2 -3
566 1 1 0.5897 0.3421942557891883 8.31152826779738 9.681458398127587 1 4 -5
448 1 2 -1.1794 6.422728850332136 9.082201008003011 6.103342899724057 4 -1 -4
766 1 2 -1.1794 5.023663373351948 6.898542347025811 7.580295863031673 0 -1 0
317 1 1 0.5897 6.548799100267005 7.061353847925654 10.146092666368073 -6 -7 -1
144 1 1 0.5897 3.8681599789192527 8.600439869906808 8.09467342683711 -1 3 4
304 1 2 -1.1794 3.899085658274574 10.618904640339686 11.048042023613798 5 -1 -7
143 1 1 0.5897 2.5275869319413453 8.831686813187769 8.75911434778514 -1 3 4
767 1 1 0.5897 5.774130059639314 7.269736927848672 7.116256462271857 0 -1 0
9 1 1 0.5897 0.48756375069099966 6.987415669021179 7.4807455637906415 1 -1 -2
306 1 1 0.5897 3.5868984420622723 10.134656965875973 10.283611608261648 5 -1 -7
449 1 1 0.5897 7.0390581633783995 9.098879666059622 6.835597208061406 4 -1 -4
768 1 1 0.5897 5.410626293048478 6.335712292285161 8.250963301970442 0 -1 0
803 1 1 0.5897 7.302837283432372 9.730616004050495 10.541595025796157 5 2 -3
142 1 2 -1.1794 3.361988058753624 9.260378825956394 8.568574503974666 -1 3 4
497 1 1 0.5897 1.0714234545847259 11.784806624938566 10.535972225847326 3 -2 2
825 1 1 0.5897 2.4673688998927714 10.91247566428333 8.11037147801309 1 6 3
565 1 2 -1.1794 0.960706816696479 7.771270982298692 9.189643261753897 1 4 -5
7 1 2 -1.1794 0.1872439331578934 6.693760016572062 6.620577591919581 1 -1 -2
808 1 2 -1.1794 4.236410578518662 3.0444064278362526 13.6434887889607 6 1 -2
809 1 1 0.5897 3.901477184375767 3.691324777592731 14.264471040652353 6 1 -2
460 1 2 -1.1794 1.9677100277753943 4.624259751953932 15.013245257438745 5 3 0
488 1 1 0.5897 6.776349772201291 4.675919950166324 13.404698092289498 0 -9 2
487 1 2 -1.1794 6.744834449264086 5.534666826797557 13.82648356370771 0 -9 2
810 1 1 0.5897 4.348760584812426 3.5312278347506605 12.826980014100268 6 1 -2
462 1 1 0.5897 1.799400215538976 5.148593609378297 15.796221382205553 5 3 0
461 1 1 0.5897 1.3052296028583001 3.933815358029088 15.039792948219839 5 3 0
416 1 1 0.5897 6.477603142600159 5.3144964416434775 15.635014659021465 -2 -4 -3
820 1 2 -1.1794 8.015969875536525 3.4035464362703176 12.301577248693162 1 2 3
821 1 1 0.5897 7.729046998878099 2.5835501438442883 12.703575006225627 1 2 3
600 1 1 0.5897 6.001945166098253 1.0807448016620476 14.045446465734159 -2 -2 -2
489 1 1 0.5897 7.457398471690854 6.0279897809432 13.420005390296485 0 -9 2
533 1 1 0.5897 1.3990919486921514 5.935040492530832 13.773644604285277 -7 -1 -4
279 1 1 0.5897 3.043085820315322 1.8885727163323844 12.649630888159097 -1 2 2
598 1 2 -1.1794 6.775016662144271 1.1911370492727158 13.49184259003926 -2 -2 -2
514 1 2 -1.1794 -0.08001439208365194 2.567810612954677 15.232762446257004 -1 -4 -1
278 1 1 0.5897 1.639672387464712 1.504548205983566 12.231275825516557 -1 2 2
91 1 2 -1.1794 -0.18932890616280645 1.9299335187819309 12.433376700456078 1 -5 -1
822 1 1 0.5897 7.970401243703135 3.237976991202581 11.35986087802772 1 2 3
342 1 1 0.5897 8.746696544410804 1.7194889485994485 16.512141921367807 4 3 2
683 1 1 0.5897 3.27678831588524 5.750072476447402 11.548660381088604 6 -1 -7
277 1 2 -1.1794 2.5567344447828084 1.422780182261501 11.969336011340255 -1 2 2
415 1 2 -1.1794 6.711581537626552 5.041333704797516 16.522116000734712 -2 -4 -3
763 1 2 -1.1794 4.479340747260055 4.345614531975571 11.281488992019492 -5 3 -3
515 1 1 0.5897 -0.07779144580544423 1.63904152697766 15.46447562403679 -1 -4 -1
431 1 1 0.5897 8.30319728148354 0.8378313150637027 14.36557520993906 -5 1 -2
305 1 1 0.5897 3.30246295809991 10.365843044639801 11.752539657893287 5 -1 -7
361 1 2 -1.1794 4.245019610703819 8.99081010471922 16.03167855050419 4 -2 -3
534 1 1 0.5897 0.23016349654958213 6.895287758791994 13.713563429511849 -7 -1 -4
532 1 2 -1.1794 1.1482206534459645 6.803414121194121 13.458540819043368 -7 -1 -4
398 1 1 0.5897 8.809693805284217 10.82031745831637 14.0561447928562 3 4 -4
838 1 2 -1.1794 8.61493214902897 7.460475062115525 12.991579535801394 -1 -3 -3
363 1 1 0.5897 4.483784191623112 8.562910731472991 15.209354908460973 4 -2 -3
770 1 1 0.5897 7.0386493688773095 11.239949219773074 13.866462579197647 5 1 -1
409 1 2 -1.1794 2.259718169010056 9.547545412265883 12.937689217528433 4 2 -4
684 1 1 0.5897 2.2452922062701752 6.706005212371087 12.109274453178102 6 -1 -7
771 1 1 0.5897 7.092727873996303 11.687747581888633 15.311671315084988 5 1 -1
59 1 1 0.5897 -0.09814492888327817 9.702635233950131 15.579990540570467 4 -4 -3
410 1 1 0.5897 2.330846215271151 8.607441258358145 13.103376571928607 4 2 -4
839 1 1 0.5897 8.252822461675041 7.710888834778532 12.141577532787869 -1 -3 -3
864 1 1 0.5897 5.32958369359648 10.34414132591087 12.171214671472937 -1 0 2
275 1 1 0.5897 1.4350607712119177 7.845151362215545 16.400728143460896 -4 3 -3
362 1 1 0.5897 5.001028385383327 9.537490453870628 16.246057549889166 4 -2 -3
274 1 2 -1.1794 1.6221368587894838 8.777709167709238 16.292722310628683 -4 3 -3
320 1 1 0.5897 5.348559116308547 6.775634263424571 13.724873367600882 5 0 1
276 1 1 0.5897 2.554602594590249 8.812267963444295 16.07909642686394 -4 3 -3
863 1 1 0.5897 5.68545741267659 9.33064719937627 13.238105142344248 -1 0 2
862 1 2 -1.1794 5.891046786742885 10.215304476187306 12.935720428252413 -1 0 2
321 1 1 0.5897 4.249128406478122 7.426119292224995 12.912339364885982 5 0 1
319 1 2 -1.1794 4.83891052767965 7.582443029582555 13.649927467297934 5 0 1
411 1 1 0.5897 1.3602295001841824 9.766750415743493 13.180970910017257 4 2 -4
840 1 1 0.5897 8.800112800525287 8.292084795588833 13.427967670670366 -1 -3 -3
682 1 2 -1.1794 2.9031780071610753 6.621811551205947 11.419057519737157 6 -1 -7
60 1 1 0.5897 -0.23447125542893815 10.90863550249083 14.674956475544857 4 -4 -3
783 1 1 0.5897 4.044044437254649 11.279098212662582 14.082483072344841 -4 -2 1
850 1 2 -1.1794 6.433060538183724 10.727188835689663 16.829833553155716 -6 -1 -2
253 1 2 -1.1794 3.4545304960335352 5.236880725702982 18.91012681831932 1 8 -7
500 1 1 0.5897 6.290891114910287 2.2111904050899724 18.19874762540811 -2 2 -3
254 1 1 0.5897 3.1241826558252686 5.271731319318772 19.807878093897713 1 8 -7
526 1 2 -1.1794 7.307630903840721 2.3121989178115117 20.008407190428088 -3 -4 0
95 1 1 0.5897 0.6039959065288303 5.866073966034723 17.564581716889137 -5 2 1
255 1 1 0.5897 3.486987733692976 4.303011162755471 18.702430977646536 1 8 -7
528 1 1 0.5897 6.7821591449405485 2.4527959330475593 20.79610044332042 -3 -4 0
395 1 1 0.5897 3.0345347186638567 1.7992131905267374 20.52945606115049 0 0 4
396 1 1 0.5897 4.047947350428639 1.9489249174000258 21.64420466643078 0 0 3
394 1 2 -1.1794 3.2037445684049906 1.5478219391751944 21.4374620705643 0 0 4
43 1 2 -1.1794 5.582808732134606 3.0646515477942056 22.08253707293506 2 4 -3
601 1 2 -1.1794 2.3064647750048937 2.7310517428540555 18.85257208758889 3 5 -2
817 1 2 -1.1794 2.827194566787242 5.442309580289258 21.613134614692065 3 1 -2
602 1 1 0.5897 1.7872298799417705 2.103485863799074 18.34969755919515 3 5 -3
819 1 1 0.5897 2.9083431290058845 5.933652062987679 22.43063542117924 3 0 -2
417 1 1 0.5897 6.399668448029528 5.752167062772144 17.08223206716376 -2 -4 -3
603 1 1 0.5897 1.7140344307575381 3.0368962103841826 19.539437632521604 3 5 -2
499 1 2 -1.1794 5.665487464308634 2.506432896311117 17.536885351733297 -2 2 -3
96 1 1 0.5897 2.093249769431699 5.83161681703137 17.83476288350319 -6 2 1
818 1 1 0.5897 2.49110519786928 4.586589274786751 21.87978073729996 3 1 -2
702 1 1 0.5897 4.488798325604174 1.1448884753700865 17.137564102231522 3 0 2
605 1 1 0.5897 7.7710851619275925 5.957595855464617 22.0814815387819 -7 0 -1
527 1 1 0.5897 7.353781052285517 1.3604149930664797 19.917418671491532 -3 -4 0
788 1 1 0.5897 0.14291916510813857 2.2567947428963873 20.582012762726933 1 -2 3
787 1 2 -1.1794 0.27473021667069053 3.2024607448076674 20.513787232448635 1 -2 3
341 1 1 0.5897 7.852153061613716 2.3505643197240014 17.55790941878238 4 3 2
695 1 1 0.5897 8.852950022505967 2.5165169349843826 20.893969843711524 1 -2 0
340 1 2 -1.1794 8.765167603230962 2.125515733648472 17.37880195151194 4 3 2
94 1 2 -1.1794 1.4424265979615625 6.1788228295768235 17.224698798023198 -6 2 1
501 1 1 0.5897 6.0756849581061925 3.2782305876826223 17.14651875686181 -2 2 -3
604 1 2 -1.1794 6.866028328471946 5.756872090019748 22.320001022708517 -7 0 -1
45 1 1 0.5897 5.956440651925228 3.9459170123429677 22.074244463025423 2 4 -3
390 1 1 0.5897 8.645831072489614 5.258450070637906 17.01521950252456 0 5 3
731 1 1 0.5897 1.349218547413116 9.632211329770561 17.909473877156742 0 0 -5
51 1 1 0.5897 4.738670260183356 6.309927822464337 18.569746112178123 7 1 -1
174 1 1 0.5897 3.412429902886974 11.792353474659874 22.159642835527784 3 4 0
12 1 1 0.5897 7.4816163427745845 11.257896674057477 19.66367612651227 -1 2 4
615 1 1 0.5897 0.4387620176983871 6.805730389513861 20.005361529322236 -5 2 4
156 1 1 0.5897 -0.10675245562858987 11.499061232361473 18.674999049636654 6 4 -6
153 1 1 0.5897 0.41055103889477274 8.651462255799336 22.16711764891364 2 0 -1
106 1 2 -1.1794 3.8752048351310053 10.77601683881938 19.241003074599902 0 0 3
10 1 2 -1.1794 7.91773241518904 10.42672748370957 19.475477279752674 -1 2 4
206 1 1 0.5897 5.0809939670887445 9.584830698966327 19.61343198654427 -5 3 -4
200 1 1 0.5897 5.218757381094209 8.726836971288296 21.918981366307527 5 -3 -1
107 1 1 0.5897 3.022316879274942 10.395796663554108 19.030481273650224 0 0 3
108 1 1 0.5897 3.7254127805187496 11.269834707280198 20.047236118350575 0 0 3
50 1 1 0.5897 4.635466212440889 7.563885204418078 17.72764593456001 7 1 -1
851 1 1 0.5897 7.018734789905011 10.341259750505168 17.481253706479187 -6 -1 -2
49 1 2 -1.1794 5.265254419314108 7.017799467066847 18.19832677990884 7 1 -1
613 1 2 -1.1794 1.0970350063733816 7.408493940419642 20.351270728868215 -5 2 4
614 1 1 0.5897 1.7945496986949512 6.840260392634765 20.67820207145173 -5 2 3
730 1 2 -1.1794 1.1885295379203158 9.83049021611636 18.832059173953304 0 0 -5
732 1 1 0.5897 1.1173753244147764 8.973637698343143 19.25282435914236 0 0 -5
207 1 1 0.5897 5.502705653058124 8.132854896333203 19.6908589307358 -5 3 -4
11 1 1 0.5897 7.353632782278988 9.76400633396097 19.874121753223243 -1 2 4
205 1 2 -1.1794 5.683652060091283 8.99470423017041 20.066056955812805 -5 3 -4
606 1 1 0.5897 6.4549303760469945 6.612511558247104 22.443397848469893 -7 0 -1
852 1 1 0.5897 5.936379143407643 11.38662260204583 17.31438808869555 -6 -1 -2
365 1 1 0.5897 1.9384135722513696 13.855260277633825 2.0060804479382037 2 3 2
758 1 1 0.5897 3.6933485826872694 13.436777650007418 5.133881115112542 0 3 2
352 1 2 -1.1794 6.1630004190418335 12.90644762861867 2.5207312196156577 6 0 -2
353 1 1 0.5897 5.862762149195067 13.014535121729143 1.6182492493617397 6 0 -2
354 1 1 0.5897 5.38111237679227 13.053496018555169 3.053015961281966 6 0 -2
364 1 2 -1.1794 1.555399299822062 13.325530684428449 2.7053879801630685 2 3 2
230 1 1 0.5897 1.1359683966894585 13.891793728177735 4.416540951606838 4 4 2
98 1 1 0.5897 8.73794275691553 14.351839513597477 1.30558859487803 5 -7 3
366 1 1 0.5897 1.9190589994098084 12.45044633533475 2.57018184039634 2 3 2
757 1 2 -1.1794 4.096035353558988 12.717616125957791 4.6470960973857505 0 3 2
423 1 1 0.5897 2.035193194961617 16.10638080110013 5.156691442226902 -3 0 5
241 1 2 -1.1794 2.204218197373143 15.308555605555876 0.993951066729263 2 -4 3
422 1 1 0.5897 1.688579852481347 17.210366538284873 4.180374192132599 -3 0 5
421 1 2 -1.1794 1.555996152805559 16.93207669217265 5.086625463845636 -3 0 5
627 1 1 0.5897 7.945549392463361 16.93148418073605 0.9333975435056474 -4 -2 1
243 1 1 0.5897 3.010830350640378 15.477548133338813 0.5069845516908924 2 -4 3
242 1 1 0.5897 2.138327805669545 16.03836835924897 1.6098505017613947 2 -4 3
759 1 1 0.5897 4.774883231340287 12.381973961053008 5.232596470348061 0 3 2
6 1 1 0.5897 8.806397358414333 14.588889155237078 3.5119615977704846 0 1 0
5 1 1 0.5897 8.013925258919965 14.760360805297458 4.7905184381120876 0 1 0
99 1 1 0.5897 7.39450037976922 14.64476147651279 1.9391781378648973 5 -7 3
229 1 2 -1.1794 0.7779609785471386 13.985940670350606 5.299306181348259 4 4 2
231 1 1 0.5897 -0.10103871247798549 14.34049779749961 5.165253843152059 4 4 2
811 1 2 -1.1794 5.537304551852802 13.498402811910514 -0.024154364902208236 -4 8 -4
4 1 2 -1.1794 8.734727240172575 14.259897590655273 4.408030124313054 0 1 0
812 1 1 0.5897 5.521668585698724 14.43854653893351 -0.20360680979453227 -4 8 -4
97 1 2 -1.1794 8.251911931400556 15.034529775985286 1.7682042084973535 5 -7 3
564 1 1 0.5897 0.8603766810919695 15.449942847822042 -0.1406398067903813 7 -1 3
169 1 2 -1.1794 6.554558154387332 15.877784025349236 5.381391234289569 -3 0 -3
626 1 1 0.5897 7.339166423745008 18.304669645033677 0.7365361315958281 -4 -2 1
189 1 1 0.5897 5.433284452563331 19.501889134203303 -0.11100374474764582 0 4 3
76 1 2 -1.1794 8.976100137652754 19.78470120036846 2.9445466404739054 -8 -4 -4
102 1 1 0.5897 2.3706538729782656 22.001784949953333 2.3794319439706864 6 -5 0
236 1 1 0.5897 1.4481730906431165 18.375849289424437 2.0373504419375563 0 -1 -1
444 1 1 0.5897 3.998809762101285 20.10575495357977 2.9455977361361034 5 7 -2
55 1 2 -1.1794 2.272929099439153 21.9394908843313 5.208238192421063 -3 -1 -2
133 1 2 -1.1794 6.400381747500453 20.495247408381935 4.507544396605004 1 -7 -3
625 1 2 -1.1794 8.158158548024234 17.86432970884521 0.9638512471467162 -4 -2 1
442 1 2 -1.1794 4.55475265741217 19.326720550089988 2.926923859851679 5 7 -2
187 1 2 -1.1794 5.509969305277681 18.667575404869318 0.35196291057067597 0 4 3
135 1 1 0.5897 6.105577191536258 21.386518001485555 4.320087344648739 1 -7 -3
474 1 1 0.5897 0.7492485198344765 19.909529018636107 0.6752191037936892 3 2 -2
235 1 2 -1.1794 2.0787198104722084 17.794415524857918 2.4623723169023517 0 -1 -1
237 1 1 0.5897 2.904329219555011 18.278330841344683 2.44004574912254 0 -1 -1
473 1 1 0.5897 1.3199007291487461 20.245142528554332 2.0367936105180195 3 2 -2
101 1 1 0.5897 2.4351199512836597 21.23205857622758 3.6815192657115707 6 -5 0
100 1 2 -1.1794 2.5712339372631585 21.137500955667093 2.7387390033894206 6 -5 0
134 1 1 0.5897 7.2806155634423515 20.450076807538537 4.134114751784566 1 -7 -3
77 1 1 0.5897 8.70365622658419 19.122351326661416 2.3094291082720195 -8 -4 -4
188 1 1 0.5897 5.085368935453836 18.821531866406808 1.1959647839878147 0 4 3
443 1 1 0.5897 5.312029812788075 19.55935701928663 3.4642572435279684 5 7 -2
472 1 2 -1.1794 0.574041997194368 19.821211169409438 1.6121370191835396 3 2 -2
715 1 2 -1.1794 6.073395944820078 21.40657131055243 -0.1861640186589099 3 -10 -1
367 1 2 -1.1794 3.7883436387810754 15.125832352557875 5.958347545378483 4 7 -3
368 1 1 0.5897 3.740504293240269 15.984563534181458 6.3785951081369845 4 7 -3
369 1 1 0.5897 3.7916291694333477 14.502814996106112 6.68509292590102 4 7 -4
440 1 1 0.5897 5.478041527284544 16.50256179610529 10.131283449357364 3 1 -1
326 1 1 0.5897 0.626505551342365 14.717183869257452 7.094560015946182 1 -2 -2
325 1 2 -1.1794 0.15798728407539475 14.86102654791196 7.916854322945413 1 -2 -2
530 1 1 0.5897 7.953363028924903 12.854602529621092 7.409173645787233 -5 -4 -3
498 1 1 0.5897 0.7036442976975457 13.156776374155509 11.059916723637755 3 -2 1
521 1 1 0.5897 1.2837379999353764 14.790383587395743 9.439284488635785 -2 -1 -3
750 1 1 0.5897 2.987902570543651 12.855403976487752 8.16946975954818 2 4 0
749 1 1 0.5897 3.039430440488584 14.131242487936358 8.982885496193902 2 4 0
425 1 1 0.5897 8.394279412643604 11.966903855317819 9.303499374657866 4 -5 2
520 1 2 -1.1794 1.7909630430264323 14.716567962460324 10.247724723651439 -2 -1 -3
748 1 2 -1.1794 3.518744249585578 13.638189445602775 8.316955407873229 2 4 0
654 1 1 0.5897 -0.1578664949605485 17.250332677585696 9.79854769599943 2 3 1
193 1 2 -1.1794 5.567016918691718 12.633662690853884 10.232039434718406 2 -4 0
837 1 1 0.5897 8.931338146849313 17.318344154780952 7.73251273631201 -2 2 -3
195 1 1 0.5897 5.158496240721284 13.068204393521896 9.483312379141069 2 -4 0
522 1 1 0.5897 1.6550858856272639 15.55272724379804 10.6934895399289 -2 -1 -3
170 1 1 0.5897 5.665114221020495 15.530547702281511 5.449396072046808 -3 0 -3
194 1 1 0.5897 4.910321396202515 12.005345454775556 10.532504247358151 2 -4 0
529 1 2 -1.1794 8.699073824524092 13.225622748580927 7.880979807466636 -5 -4 -3
183 1 1 0.5897 0.8019241578795191 12.156016832304786 5.433563914441829 -2 1 -2
295 1 2 -1.1794 6.840868206267666 12.042944113335395 6.1092228221510645 -1 5 2
848 1 1 0.5897 9.099613894326692 15.192175336298007 8.764672802862515 2 -3 6
426 1 1 0.5897 7.244631496391217 11.972787310970613 10.288565571080435 4 -6 2
296 1 1 0.5897 7.324520441431765 12.449573603767796 5.390128544860336 -1 5 2
171 1 1 0.5897 6.469194089313856 16.803106558172587 5.611230857660764 -3 0 -3
16 1 2 -1.1794 3.7937115237842383 22.403393981125866 9.85164142181009 -4 3 4
120 1 1 0.5897 6.7265749645287976 22.132565715816312 9.93990246894692 1 -1 -1
629 1 1 0.5897 1.6645815925507352 20.756129565099855 7.477436141890039 1 -4 0
18 1 1 0.5897 3.160182816897637 21.972598755473634 9.277731356551651 -4 3 4
57 1 1 0.5897 1.991519138754314 21.740654145927415 6.101331625362084 -3 -1 -2
628 1 2 -1.1794 1.767239677084219 21.653975389530082 7.7931030097527465 1 -4 0
836 1 1 0.5897 8.205949164513413 18.38617329665601 6.941485174842385 -2 2 -3
118 1 2 -1.1794 6.386068444165088 22.079710020892747 10.832975593871947 1 -1 -1
104 1 1 0.5897 3.1443891967354918 18.11438738989635 7.263611592482276 5 0 5
141 1 1 0.5897 1.4255325088900797 18.153728886883876 6.3285751590074675 1 -1 -1
360 1 1 0.5897 6.828697048158401 22.84452996150869 7.5336707497944655 1 -4 -5
167 1 1 0.5897 6.213721004622996 19.50453845256871 5.932873195968045 -1 -1 3
166 1 2 -1.1794 6.357057460843296 18.8142667229547 6.580396440141033 -1 -1 3
103 1 2 -1.1794 4.007268343551782 17.70267381652622 7.311006507182309 5 0 5
105 1 1 0.5897 4.088893590670649 17.420686533738404 8.222134944678348 5 0 5
630 1 1 0.5897 0.8874992053473785 21.91437485521468 8.066239165686842 1 -4 0
439 1 2 -1.1794 5.059084874601012 17.355392429156964 10.015197061218304 3 1 -1
139 1 2 -1.1794 1.3367527469723375 18.81177381220577 7.018068112626181 1 -1 -1
140 1 1 0.5897 0.6373300588696806 18.47788002298251 7.57987194170364 1 -1 -1
441 1 1 0.5897 5.7501636393689015 17.990057828744597 10.204691762779998 3 1 -1
119 1 1 0.5897 5.440829158956339 22.196148372154276 10.73669520461754 1 -1 -1
168 1 1 0.5897 5.478323349770629 18.503385126931065 6.798291270674716 -1 -1 3
63 1 1 0.5897 6.101286192548139 20.286840329560754 11.065798777590658 -1 1 1
359 1 1 0.5897 8.141235185930675 22.090022480177034 7.5387073184458115 1 -4 -5
358 1 2 -1.1794 7.403951190762029 22.33010727574112 8.100023321210573 1 -4 -5
835 1 2 -1.1794 9.07536066083417 18.13412948404445 7.2528335492650315 -2 2 -3
84 1 1 0.5897 8.369410335317282 18.903611882095802 10.729307050612213 -5 -2 -6
82 1 2 -1.1794 9.081166680803307 18.297658889709446 10.93554263621325 -5 -2 -6
617 1 1 0.5897 9.026969474698875 20.390342385179345 7.203463718927334 -1 4 1
510 1 1 0.5897 5.535712125675091 16.8847861652362 12.471547352419195 4 0 3
509 1 1 0.5897 5.0673787767210925 16.180141571695238 13.72707299351724 4 0 3
508 1 2 -1.1794 5.36812663488458 17.02914718826294 13.402920154367767 4 0 3
224 1 1 0.5897 8.195838109303615 14.915743321879074 13.93554009074905 1 -1 -8
225 1 1 0.5897 7.780084919928862 13.793681631203743 14.863020709542266 1 -1 -8
223 1 2 -1.1794 7.754747945495074 14.745853867836278 14.767936666109723 1 -1 -8
769 1 2 -1.1794 7.494837561468658 11.840061286390974 14.456432026255486 5 1 -1
457 1 2 -1.1794 4.998583177290307 14.51074819745009 14.543484850269007 2 -1 0
459 1 1 0.5897 5.948565632446883 14.39391442004632 14.530014638287437 2 -1 0
458 1 1 0.5897 4.652733060774076 13.710511785526492 14.148113371174542 2 -1 0
250 1 2 -1.1794 0.8856671910326621 16.778033035003453 11.690499127210304 6 -3 3
346 1 2 -1.1794 6.271500211281728 15.158307433348027 11.176256304540658 -3 3 -2
251 1 1 0.5897 0.348543581922408 16.505941823837436 12.434659473094037 6 -3 3
347 1 1 0.5897 7.19855427802367 15.18187894367802 11.413604129105908 -3 3 -2
672 1 1 0.5897 1.8199392201383668 12.089812266167456 13.969480888257342 5 2 2
791 1 1 0.5897 8.643365302328803 15.835366202083346 16.00796740967698 2 3 1
252 1 1 0.5897 1.5982175804944216 17.284013299232036 12.081099780825157 6 -3 3
782 1 1 0.5897 3.79000498390114 12.149081458243177 15.295213910506172 -4 -2 1
581 1 1 0.5897 0.26083388033697796 14.358601123993493 13.981520483564163 -5 -3 1
667 1 2 -1.1794 8.852108818906663 15.319668434891506 12.384121912765748 -6 -1 0
496 1 2 -1.1794 0.5023070006882419 12.22697633347452 11.165978603228082 3 -2 2
671 1 1 0.5897 0.7653349601292165 12.241691692112752 12.893931617347148 5 2 2
827 1 1 0.5897 3.944828006284358 15.091358138081175 16.03122758869477 -2 3 0
781 1 2 -1.1794 3.596200131736188 12.078150300278352 14.360469369169815 -4 -2 1
670 1 2 -1.1794 0.877962008097769 12.204645768307632 13.843795076997491 5 2 2
348 1 1 0.5897 6.022559309095926 14.238946995777349 11.271871778265359 -3 3 -2
785 1 1 0.5897 2.901511974683343 19.817547407519122 12.463354089040557 3 3 3
48 1 1 0.5897 4.128347009112326 17.791346996398055 16.770977479432396 3 -3 0
117 1 1 0.5897 -0.15249700676863556 21.302557852983504 15.110343018236406 -2 -2 4
800 1 1 0.5897 1.0119899843716467 19.7040878312311 13.796257254192495 0 0 0
701 1 1 0.5897 4.1755898649790035 22.0571060680832 16.26435654276397 3 -1 2
287 1 1 0.5897 8.474303281414036 20.068805296658113 14.844334963656927 3 -1 2
480 1 1 0.5897 6.34487447767282 19.923884355024605 14.139343544753173 -4 1 -3
799 1 2 -1.1794 0.13675228537192174 19.6854031117798 14.183451887721555 0 0 0
196 1 2 -1.1794 3.3105691097656123 18.172896619445957 11.981478775680307 -1 -2 1
452 1 1 0.5897 4.3325213588733185 19.916831670732122 15.661926052655309 -2 -4 2
478 1 2 -1.1794 7.03817033319452 19.349589828619315 13.813987553625811 -4 1 -3
453 1 1 0.5897 3.7895322856027773 20.28732622227526 14.298121367391978 -2 -4 2
198 1 1 0.5897 3.8535806629663076 17.90844333940774 12.724114558776806 -1 -2 1
62 1 1 0.5897 6.718298581504702 19.324377291309325 12.058286031473896 -1 1 1
451 1 2 -1.1794 4.5150075149343065 20.463165146173495 14.897378746991238 -2 -4 2
784 1 2 -1.1794 2.5493169627872776 20.552967603029913 12.964772288133315 3 3 3
786 1 1 0.5897 2.74364502871152 21.322890385855096 12.430205957096472 3 3 3
479 1 1 0.5897 6.684215028968165 18.46580208989547 13.913658777428036 -4 1 -3
599 1 1 0.5897 6.5519346981697115 22.851607642662884 12.675971091891437 -2 -3 -2
197 1 1 0.5897 3.787343613699262 17.86074178413032 11.212356854450979 -1 -2 1
61 1 2 -1.1794 6.444124842486976 19.396528896354397 11.14399800097583 -1 1 1
64 1 2 -1.1794 7.092875857477261 12.888267911179696 20.255639483143057 4 -2 -5
66 1 1 0.5897 6.693421352713364 13.600401959202118 19.75601404698704 4 -2 -5