LAMMPS data file via write_data, version 30 Jul 2021, timestep = 2000000

1008 atoms
2 atom types
672 bonds
1 bond types
336 angles
1 angle types

-3.101104084754681 14.711103084311365 xlo xhi
-0.03212460218927937 22.61212360219006 ylo yhi
-0.011640616607973442 19.24163861660635 zlo zhi
-0.18451332224813605 -6.353844809079717 0.21748133441250075 xy xz yz

Masses

1 1.008
2 15.999

Pair Coeffs # lj/cut/tip4p/long/omp

1 0 0
2 0.21084 3.1668

Bond Coeffs # harmonic/omp

1 450 0.9572

Angle Coeffs # harmonic/omp

1 55 104.52

Atoms # full

21 7 1 0.5897 1.2746150765629105 2.383523395632163 0.7991795326326104 0 0 0
31 11 2 -1.1794 1.30424143026136 1.4951310597634164 2.362500444217291 0 0 0
32 11 1 0.5897 1.0531812560337999 1.900295234194385 3.192512177084455 0 0 0
33 11 1 0.5897 0.6285940373271961 0.8360569985271403 2.2030469765580896 0 0 0
46 16 2 -1.1794 1.871980012275138 4.696470926982281 2.3990897717769326 0 0 0
55 19 2 -1.1794 -0.8438272575747554 4.411097017130037 3.205156611624266 0 0 0
56 19 1 0.5897 -1.4085312780256833 3.7476131852414882 2.808638429343153 0 0 0
57 19 1 0.5897 -0.034230175613942926 4.372714147501219 2.6959739897016397 0 0 0
86 29 1 0.5897 -2.141893158738121 1.7085580655947397 4.0201334227560475 1 0 0
16 6 2 -1.1794 5.381984458535195 4.768693534573413 0.3994001039652056 0 0 0
121 41 2 -1.1794 -2.38455887794755 2.3734732410173516 2.429546687460571 1 0 0
122 41 1 0.5897 -2.2169581527373543 2.032684814185085 1.5509599146136894 1 0 0
123 41 1 0.5897 -3.300153342601545 2.651901909166226 2.408233552698134 1 0 0
76 26 2 -1.1794 0.715095662509615 2.657340298628949 4.707397876153941 0 0 0
158 53 1 0.5897 -4.175606782628169 4.599702037995329 4.30412764017262 1 0 0
70 24 2 -1.1794 3.8688972247658926 0.4408101731857708 1.3953667995065038 0 0 0
482 161 1 0.5897 -0.8282943787320476 0.26144481067418396 0.9115327633128012 1 1 0
71 24 1 0.5897 3.2427144190764583 0.8053876504400228 2.020738136448462 0 0 0
47 16 1 0.5897 2.0957234982194626 5.02241899025471 1.5273774211868127 0 0 0
53 18 1 0.5897 4.53709920239802 3.045439242624942 2.8428337384394307 0 0 0
52 18 2 -1.1794 3.8014305185237127 3.1443835245402707 3.4471143753751807 0 0 0
527 176 1 0.5897 3.983854089364532 1.7570524342314622 0.1794792002546884 0 0 1
48 16 1 0.5897 2.0080572959556156 5.446536769609791 2.9779622420170577 0 0 0
54 18 1 0.5897 3.1757671770773452 3.6943700544405598 2.975545529888581 0 0 0
602 201 1 0.5897 -0.5510875846818624 5.3124155081325695 0.40254905734484003 1 0 1
78 26 1 0.5897 0.17797635218140417 3.4151384408290166 4.476127086696987 0 0 0
101 34 1 0.5897 -2.572852677593219 4.652282209662467 0.08939272866246442 1 0 0
6 2 1 0.5897 3.500490174758097 1.6971277661677906 4.4595337156993065 0 0 0
18 6 1 0.5897 4.94018133045598 3.9421250334117746 0.20481760698613521 0 0 0
44 15 1 0.5897 -0.24234900786560187 5.31454965651241 8.104675257652309 0 0 0
126 42 1 0.5897 -4.159112054913218 2.8815796587984046 7.239843330169224 1 0 0
401 134 1 0.5897 2.730779322076226 0.10875449254176456 8.877229862277092 0 1 0
34 12 2 -1.1794 0.26021587235957533 1.5447363908253378 7.156819091894509 0 0 0
35 12 1 0.5897 0.4038262127203267 2.1675253791799434 7.869363266352357 0 0 0
36 12 1 0.5897 -0.5640040249209175 1.11160391244265 7.378970978879119 0 0 0
43 15 2 -1.1794 -0.2824157829161127 4.996864067280856 7.202640775595889 0 0 0
87 29 1 0.5897 -3.0871403457332995 1.0748378094442952 5.0184872982631425 1 0 0
45 15 1 0.5897 0.6231981019243236 4.775121478686069 6.98599293609762 0 0 0
58 20 2 -1.1794 2.290973108790226 4.198706190949656 6.370112407895112 0 0 0
59 20 1 0.5897 1.9256333558405716 3.6336727083334903 5.68926956774679 0 0 0
60 20 1 0.5897 2.98378415845192 3.674004530359658 6.7713818315605785 0 0 0
67 23 2 -1.1794 -2.124687802497635 0.46302209365650426 8.054974687153534 0 0 0
159 53 1 0.5897 -3.1122301136190993 4.525613311080956 5.379304232990678 1 0 0
69 23 1 0.5897 -2.368921318714645 1.1696377047881388 8.652613175087856 0 0 0
134 45 1 0.5897 -2.209029726697806 2.6391522576187816 6.065272837737311 1 0 0
77 26 1 0.5897 0.30374369091252795 2.3032109075231118 5.4957866099039805 0 0 0
135 45 1 0.5897 -1.624709248846293 3.7801004146607897 6.870737849252357 1 0 0
98 33 1 0.5897 -3.7774353080934393 5.385122752609502 8.639519697645957 1 0 0
669 223 1 0.5897 -5.053349335221108 1.7858092261497762 9.058415960991418 1 0 0
97 33 2 -1.1794 -3.805146971321639 4.912067749363846 9.471188504014147 1 0 0
124 42 2 -1.1794 -4.981509686048213 2.421148341073082 7.407052045965508 1 0 0
133 45 2 -1.1794 -2.457346157060184 3.390111004880249 6.604273822524056 1 0 0
4 2 2 -1.1794 3.738965847988527 1.0232226374321838 5.0961146575111265 0 0 0
402 134 1 0.5897 1.6785412479185844 0.25255583948207594 7.798174180201969 0 1 0
522 174 1 0.5897 2.36776138229809 5.533282844590844 9.202204117518383 0 0 0
68 23 1 0.5897 -2.9571722390006174 0.14850486013900843 7.702210474001786 0 0 0
5 2 1 0.5897 3.1696656941480317 0.2828208650619371 4.886336309697501 0 0 0
85 29 2 -1.1794 -2.1624230686590122 1.2752197772830225 4.873364523806518 1 0 0
22 8 2 -1.1794 0.522216993522826 2.9907453801364885 9.534677677430674 0 0 0
24 8 1 0.5897 1.227140302199862 3.6354289507986235 9.596245653968316 0 0 0
157 53 2 -1.1794 -3.651093727964221 5.146567027131851 4.889064479363018 1 0 0
575 192 1 0.5897 1.3234452909201257 0.1565024735135351 11.502317627877677 0 0 0
524 175 1 0.5897 -2.8845182465558032 3.3203979085709734 9.771496026954999 0 0 0
668 223 1 0.5897 -5.5317327878690215 1.7738579523501887 10.494621010773587 1 0 0
23 8 1 0.5897 0.7381578853839477 2.335084341248011 10.197794136006742 0 0 0
627 209 1 0.5897 -6.59060706620345 2.9295825534793045 12.30463681934641 1 0 0
662 221 1 0.5897 -7.325260314592624 4.683642768599803 14.133225854303769 1 0 0
625 209 2 -1.1794 -5.737656727235935 2.6031576076474403 12.01804023887007 1 0 0
525 175 1 0.5897 -1.4213854086966369 2.9320892170660042 9.748859640900275 0 0 0
535 179 2 -1.1794 -1.7292509100086422 1.2793262569243935 12.20904337499946 0 0 0
536 179 1 0.5897 -1.9185176001965356 1.7620135303029034 13.013608912162447 0 0 0
537 179 1 0.5897 -1.9840907750814303 1.8762223264997848 11.505459551053255 0 0 0
550 184 2 -1.1794 -1.5897724364587598 5.124296903379336 12.214071873704988 0 0 0
626 209 1 0.5897 -5.552806630543888 1.86855064121821 12.60321388110144 1 0 0
552 184 1 0.5897 -2.512374416526396 4.918074297022011 12.364380782508873 0 0 0
556 186 2 -1.1794 0.7579536993864995 3.713311201496983 13.070190223964108 0 0 0
557 186 1 0.5897 0.47520213145921275 2.8912010144893308 13.470698603726724 0 0 0
558 186 1 0.5897 -0.04624543029082684 4.101056110289019 12.724849283811889 0 0 0
559 187 2 -1.1794 -4.135945404619353 4.264490905663798 13.263761269537106 0 0 0
560 187 1 0.5897 -4.683932552045416 3.7240233934992286 12.694601296742709 0 0 0
561 187 1 0.5897 -3.6595786011416305 3.6357133654329132 13.805983569245218 0 0 0
574 192 2 -1.1794 0.6888292578706001 0.6917455163906955 11.025768287767027 0 0 0
576 192 1 0.5897 -0.0392279666465023 0.802163892030849 11.637234272216926 0 0 0
523 175 2 -1.1794 -2.298469136404086 2.571167163865679 9.878376778379526 0 0 0
99 33 1 0.5897 -3.7798506637184928 5.597945801318765 10.138355679717609 1 0 0
591 197 1 0.5897 -4.8414497414650475 0.45695238787819525 14.325545135347905 1 0 0
551 184 1 0.5897 -1.3416266833532013 5.671701649003383 12.959063263003282 0 0 0
667 223 2 -1.1794 -5.182560465121274 1.2052766667790533 9.808408226661555 1 0 0
589 197 2 -1.1794 -5.583609272813236 1.0483937353171666 14.2003819792366 1 0 0
587 196 1 0.5897 -1.17389409109974 5.724055683328762 10.379507294691864 0 0 0
593 198 1 0.5897 -7.497169809705229 0.7259789213614127 14.331917117478193 1 0 0
986 329 1 0.5897 -4.005318942174471 0.2045020539364502 10.608065839026906 1 1 0
606 202 1 0.5897 -5.818789411280807 4.6660835917197305 9.686292881819078 1 0 0
20 7 1 0.5897 -5.294751596262985 2.181271984084556 18.61396553918544 0 0 -1
628 210 2 -1.1794 -8.03906627893743 2.6115894077277617 16.66450585256993 1 0 0
164 55 1 0.5897 -8.120645263877417 1.9934249738556673 18.29389159613187 1 0 -1
661 221 2 -1.1794 -6.759612023833821 5.372159947390796 14.482944665469201 1 0 0
638 213 1 0.5897 -6.3643154784679155 2.943346511229532 16.136549513352396 1 0 0
639 213 1 0.5897 -5.799071109831104 3.9471565586050747 15.154362924687756 1 0 0
19 7 2 -1.1794 -5.18040999304492 2.9532519301915565 19.16819345186381 0 0 -1
637 213 2 -1.1794 -5.543351869406859 3.233854192345061 15.739215176911872 1 0 0
538 180 2 -1.1794 -2.906369504180171 0.9859499223745947 16.805837208447873 0 0 0
539 180 1 0.5897 -2.711711054191097 1.6623068883408403 17.454586843667062 0 0 0
540 180 1 0.5897 -3.828937213382626 0.774461293539255 16.948864900627967 0 0 0
547 183 2 -1.1794 -3.558518104347658 4.8638343476566845 16.871718168677273 0 0 0
630 210 1 0.5897 -8.310713987624002 1.905235559968477 16.078405232792633 1 0 0
549 183 1 0.5897 -4.235317536523684 4.234729525351531 16.62174520583931 0 0 0
562 188 2 -1.1794 -0.9835576165070288 4.33251417355207 16.230237409483156 0 0 0
563 188 1 0.5897 -0.8277440216540866 5.130929751397907 15.72579079473529 0 0 0
564 188 1 0.5897 -1.838312537124466 4.469643909838121 16.638633906458946 0 0 0
603 201 1 0.5897 -6.5544151973077005 4.20118654860751 19.02074524364311 1 0 0
580 194 2 -1.1794 -2.3591800339933977 2.6650222498687657 14.56523976543313 0 0 0
581 194 1 0.5897 -2.7006275627866225 2.0473362334198555 15.211832256962964 0 0 0
582 194 1 0.5897 -1.8455477057745817 3.289447872690336 15.077679582921238 0 0 0
571 191 2 -1.1794 -5.469556066000205 0.49167729290569295 17.78101773765318 0 0 0
590 197 1 0.5897 -5.404149261044219 1.7853502043186449 14.784254752766119 1 0 0
165 55 1 0.5897 -9.027112502774486 0.962390837335362 18.93201201909447 1 0 -1
601 201 2 -1.1794 -7.26145408209999 4.842306893360434 19.093356006535974 1 0 0
526 176 2 -1.1794 -2.449138293565839 2.754338278725347 18.883329971716368 0 0 0
508 170 2 -1.1794 0.8579909240197336 1.2760042392664628 14.596709730789954 0 0 0
528 176 1 0.5897 -3.363860975361031 3.0209630574414597 18.97536120688807 0 0 0
548 183 1 0.5897 -3.5829836007395173 5.528677873213203 16.183520975380326 0 0 0
84 28 1 0.5897 -3.662826416512468 5.6196690762875035 18.538949600517924 0 0 -1
163 55 2 -1.1794 -8.329546899208797 1.5859044616362097 19.13441558999583 1 0 -1
112 38 2 -1.1794 -3.0249177470734026 6.466846187157377 2.4944574119294973 1 0 0
145 49 2 -1.1794 -0.4855428880214334 6.941569410480036 1.3623855961164566 1 0 0
146 49 1 0.5897 -1.192795683375952 6.675386182384599 1.9498672696898303 1 0 0
147 49 1 0.5897 -0.8794322830183496 7.607765203633639 0.7990833598275082 1 0 0
255 85 1 0.5897 -2.2655153701620403 8.630318170614693 3.9231381587234995 1 0 0
289 97 2 -1.1794 -2.393576353270003 9.856774397207074 2.4586268360396044 1 0 0
290 97 1 0.5897 -1.9236469136836194 10.651249480146456 2.712112824234655 1 0 0
291 97 1 0.5897 -3.317677090536724 10.076036269689148 2.577889366743179 1 0 0
332 111 1 0.5897 -2.0340584993692 9.231831408862993 0.9617321775279963 1 0 0
189 63 1 0.5897 1.729633988174446 10.262950276424794 0.18681943713902807 0 0 0
201 67 1 0.5897 1.9748991327987326 8.44102576884514 2.480844005367424 0 0 0
696 232 1 0.5897 4.154485179731459 10.783561824696351 0.10431511692606504 0 0 1
188 63 1 0.5897 0.6827369608112708 9.72941295270081 1.1413545657942061 0 0 0
200 67 1 0.5897 0.5403077796041975 8.027933042505895 2.228731427796154 0 0 0
694 232 2 -1.1794 3.594329032967731 10.01099989807774 0.02905943556408224 0 0 1
221 74 1 0.5897 4.43199914102391 10.712788054190964 2.961097664330983 0 0 0
238 80 2 -1.1794 3.5365799851281663 7.912457275988455 1.7674227173205979 0 0 0
174 58 1 0.5897 3.4020850339424182 9.25536833249076 4.715980916258033 0 0 0
240 80 1 0.5897 3.2317183479871963 7.264968910748438 1.131752108336371 0 0 0
10 4 2 -1.1794 2.1729699663477966 6.405941305092571 4.4277080273975695 0 0 0
199 67 2 -1.1794 1.0717007171515789 8.741450389651886 2.5820388771396634 0 0 0
220 74 2 -1.1794 3.6914276421351415 10.816052385880406 3.5586276335956954 0 0 0
239 80 1 0.5897 3.7014772382248324 8.69943772001086 1.2481058979616755 0 0 0
245 82 1 0.5897 0.8159550898546675 9.66966000610812 4.163871849942172 0 0 0
114 38 1 0.5897 -3.2659360564269413 5.86353651642342 1.7914835609439246 1 0 0
187 63 2 -1.1794 0.7829524341122078 10.19509341945114 0.3111192426551655 0 0 0
12 4 1 0.5897 1.2690568072470345 6.636058677739045 4.64273070883495 0 0 0
113 38 1 0.5897 -3.0782819072688623 5.939905238638631 3.291769090708792 1 0 0
331 111 2 -1.1794 -1.800702496016409 8.747829100327403 0.16963556805122795 1 0 0
9 3 1 0.5897 -0.6232851185407711 5.816875818308897 4.198659503059944 0 0 0
222 74 1 0.5897 3.0322526998738706 11.283404581092464 3.045393908300291 0 0 0
82 28 2 -1.1794 2.3841401989558344 5.919245802677013 0.030378959930728006 0 0 0
257 86 1 0.5897 -4.104352830113436 8.276002669825205 5.020205524387174 1 0 0
258 86 1 0.5897 -5.04523969214341 9.002480111723246 5.95752803537092 1 0 0
302 101 1 0.5897 -2.25724637687704 10.008790121244896 5.8437801630738235 1 0 0
64 22 2 -1.1794 2.3657761789487086 6.954708408357862 8.167996694858639 0 0 0
110 37 1 0.5897 -3.843393172239348 5.980272292111992 6.472302781699396 1 0 0
293 98 1 0.5897 -4.039681581803588 10.48051424127888 7.139168924141354 1 0 0
109 37 2 -1.1794 -3.8885866567237333 6.494489564832998 7.27834510041681 1 0 0
65 22 1 0.5897 2.5458217230633853 7.663670845863487 8.785375914074168 0 0 0
111 37 1 0.5897 -4.8153188794028825 6.7159696768404 7.369930249075418 1 0 0
301 101 2 -1.1794 -2.4596845728817702 10.84926324804183 6.254595731726212 1 0 0
294 98 1 0.5897 -4.93883631351364 9.897088559932142 8.208235948788777 1 0 0
191 64 1 0.5897 0.6033557148632616 9.896412598492613 8.874498750626111 0 0 0
8 3 1 0.5897 -0.47869772967057944 5.913340538133427 5.702542921883655 0 0 0
202 68 2 -1.1794 0.5139539549722816 8.76599263638599 7.2589386886641485 0 0 0
203 68 1 0.5897 -0.34368758492441165 8.456822852468148 7.55071200171021 0 0 0
204 68 1 0.5897 1.1019661838789165 8.027498875488783 7.41739857782007 0 0 0
228 76 1 0.5897 1.7842023686328812 11.130986797448168 6.064359293022114 0 0 0
235 79 2 -1.1794 -1.8106061685603279 7.923817699714025 8.263481801623865 0 0 0
236 79 1 0.5897 -2.60477737108016 7.562175785205647 7.869917394570892 0 0 0
237 79 1 0.5897 -2.125396879345019 8.609868914285906 8.851992387150368 0 0 0
292 98 2 -1.1794 -4.958057068496091 10.300629974762188 7.340478908615384 1 0 0
246 82 1 0.5897 0.453809912018559 9.654193417595696 5.633675075553501 0 0 0
837 279 1 0.5897 -5.882773092631808 8.341482902661523 9.08205055897991 1 0 0
66 22 1 0.5897 3.192411219211765 6.825845431255064 7.7029999630389225 0 0 0
588 196 1 0.5897 -1.067137708471901 6.671893043696631 9.203891059171 0 0 0
303 101 1 0.5897 -1.672755708477455 11.068100483566484 6.753854679660693 1 0 0
7 3 2 -1.1794 -0.4468056299444365 6.439738018069285 4.903726034313247 0 0 0
11 4 1 0.5897 2.4033073681003927 5.723328731041073 5.057969091768705 0 0 0
244 82 2 -1.1794 0.7008381638591676 10.243647918777317 4.921126639525267 0 0 0
253 85 2 -1.1794 -2.281753735074382 8.46094042465238 4.865082201285212 1 0 0
172 58 2 -1.1794 3.5735486328099686 8.55446558191934 5.344933138357653 0 0 0
254 85 1 0.5897 -1.6703336089363252 7.7349668597350565 4.9890408528302865 1 0 0
173 58 1 0.5897 3.1650202516420824 7.77992635209496 4.958319403083099 0 0 0
691 231 2 -1.1794 -2.2722949833554593 10.238083303596527 9.954819630160205 0 0 0
618 206 1 0.5897 -6.572784533921792 5.946430099729395 11.219778347061544 1 0 0
836 279 1 0.5897 -4.805817654401579 8.387672925732579 10.145199832379005 1 0 0
190 64 2 -1.1794 0.483219396019432 10.173322164471264 9.782816277476957 0 0 0
750 250 1 0.5897 -2.867667215750499 10.862392872232167 14.089504469290294 0 0 0
616 206 2 -1.1794 -6.376124619167639 6.494189972908154 11.979722738324407 1 0 0
795 265 1 0.5897 -5.754001485999016 9.889000201577945 11.123060596396542 1 0 0
793 265 2 -1.1794 -5.798684696098994 10.093403110564772 12.05708718545003 1 0 0
649 217 2 -1.1794 -3.927572884414411 7.188532935049918 11.134195849995791 1 0 0
650 217 1 0.5897 -3.432784252060308 7.697356903224617 11.776540920820182 1 0 0
651 217 1 0.5897 -4.740077657174879 6.958157874548686 11.584737141845213 1 0 0
759 253 1 0.5897 -5.456900596490539 8.968011354902904 13.487371087334195 1 0 0
678 226 1 0.5897 0.6236144235021301 9.429883501601845 14.21426551910937 0 0 0
744 248 1 0.5897 0.28559748219000625 7.244603692595603 10.849932381643274 0 0 0
794 265 1 0.5897 -5.1688938318271 10.804134794861268 12.177672554516729 1 0 0
693 231 1 0.5897 -2.285833363351871 9.895914605849928 10.848663549657163 0 0 0
703 235 2 -1.1794 -2.008445917437353 8.706721447290374 12.368703850571627 0 0 0
704 235 1 0.5897 -1.1302767439806587 8.35264923233189 12.228324886638752 0 0 0
705 235 1 0.5897 -1.937358933175437 9.209806836399453 13.179903485350454 0 0 0
724 242 2 -1.1794 0.8353289637834802 11.005467454090855 13.217643469451042 0 0 0
742 248 2 -1.1794 0.5379067188696989 7.945726149053375 11.450772054737772 0 0 0
743 248 1 0.5897 0.5699406798187807 8.730569345904854 10.903775247843472 0 0 0
192 64 1 0.5897 1.071382188623053 10.92154588172338 9.885441902753259 0 0 0
513 171 1 0.5897 -4.035576927294533 5.882178827656374 14.053373092923724 0 0 0
692 231 1 0.5897 -1.3441875478819432 10.374228881737974 9.76410122594095 0 0 0
617 206 1 0.5897 -7.041404217242384 7.1820585953387805 11.958194775066842 1 0 0
663 221 1 0.5897 -6.615512505865503 5.96288517469604 13.743699538607896 1 0 0
586 196 2 -1.1794 -0.5508045483368509 6.070926217576091 9.741046550054808 0 0 0
757 253 2 -1.1794 -5.520707847196977 8.558691623528484 14.350263442028238 1 0 0
835 279 2 -1.1794 -5.382216523980823 8.949070851673827 9.626642415119079 1 0 0
748 250 2 -1.1794 -2.2482758212095026 10.318534384022927 14.576200812686103 0 0 0
333 111 1 0.5897 -8.183703515838381 9.619389180857816 18.724661215409174 1 0 -1
749 250 1 0.5897 -2.7699154264163326 9.931003783294678 15.278979738670525 0 0 0
762 254 1 0.5897 -7.506815375574385 8.370592220098146 14.895618432145652 1 0 0
83 28 1 0.5897 -4.538666137631692 6.801710079604116 18.895892182701278 0 0 -1
796 266 2 -1.1794 -7.986476531498335 10.433220245055354 17.175320309010893 1 0 0
568 190 2 -1.1794 -1.0227031369361415 7.272986875390427 17.982586541750884 0 0 0
569 190 1 0.5897 -1.185009506827444 6.467711423964578 18.47391616999447 0 0 0
570 190 1 0.5897 -0.24303522675170086 7.0828148798817905 17.460932821399695 0 0 0
613 205 2 -1.1794 -7.390253017703952 6.456344429586173 16.8675548291384 1 0 0
731 244 1 0.5897 -1.2301013332869104 11.345380710545019 15.492152670107945 0 0 0
805 269 2 -1.1794 -5.53575594884174 11.03979094124361 15.992890809686742 1 0 0
797 266 1 0.5897 -7.134903136441553 10.768485946667157 16.894783762273388 1 0 0
695 232 1 0.5897 -2.6685393066863767 9.954020745064897 18.369895124390194 0 0 0
758 253 1 0.5897 -5.297324637178582 9.257854284157107 14.964662187651854 1 0 0
706 236 2 -1.1794 -2.947150467308301 8.922132734016412 16.85777804077087 0 0 0
707 236 1 0.5897 -3.8449080497213677 8.645701458469354 17.041932687749036 0 0 0
708 236 1 0.5897 -2.402955675521018 8.210283386742413 17.194493327213838 0 0 0
798 266 1 0.5897 -8.190910036821801 9.740949844024199 16.546672306912114 1 0 0
511 171 2 -1.1794 -3.704525632861574 6.577183352869535 14.622261350496384 0 0 0
739 247 2 -1.1794 -5.373753309415369 8.026108621248223 17.97060076448814 0 0 0
740 247 1 0.5897 -6.141264319614777 7.650452197142651 17.539087609138964 0 0 0
741 247 1 0.5897 -5.707195107880802 8.802632604111466 18.419992882434215 0 0 0
615 205 1 0.5897 -7.220917860508622 5.934928150910205 16.08296022298715 1 0 0
512 171 1 0.5897 -4.296190720983256 7.314048313875163 14.469967238297768 0 0 0
676 226 2 -1.1794 0.7297532374399465 8.705069714845417 14.830384107368786 0 0 0
515 172 1 0.5897 -1.8673714550895841 6.844121123843743 14.442047610094107 0 0 0
516 172 1 0.5897 -0.4308756950778765 7.300469000575291 14.585106079809007 0 0 0
514 172 2 -1.1794 -0.9720292169607276 6.513844314744263 14.516832533636643 0 0 0
614 205 1 0.5897 -7.264592979996106 5.845286777779331 17.59354335645865 1 0 0
280 94 2 -1.1794 -3.455046989292256 14.05374725165485 2.5507357402278243 1 0 0
281 94 1 0.5897 -3.465679703071177 13.585935798702202 3.3857539902589293 1 0 0
282 94 1 0.5897 -2.539635964898996 14.305516387777512 2.4284308662114578 1 0 0
500 167 1 0.5897 -1.661150568702124 15.683852230629178 0.554316160317116 1 0 0
423 141 1 0.5897 -2.6175453656541334 16.262321826585115 4.011884693346332 1 0 0
313 105 2 -1.1794 -0.822206830398442 14.618786465386933 1.7790823797998097 1 0 0
250 84 2 -1.1794 2.5119568941931343 13.684257022265694 0.20288048029970557 0 0 0
315 105 1 0.5897 -0.40152054999673625 13.907284396175513 1.2964908019676598 1 0 0
215 72 1 0.5897 1.9187130802554089 12.964845292531201 1.6738131204919358 0 0 0
770 257 1 0.5897 -1.436626581107034 12.404531475263855 0.14517600381690776 1 0 1
216 72 1 0.5897 0.8686160766578981 12.404985614021006 2.609570355553732 0 0 0
214 72 2 -1.1794 1.8040246160388111 12.599728315145098 2.551154701199748 0 0 0
408 136 1 0.5897 3.817566112577345 16.325840023089484 1.1395321151421685 0 0 0
223 75 2 -1.1794 -0.6798628378244289 11.921503619015779 3.254582752470379 0 0 0
225 75 1 0.5897 -0.8971503130326277 12.755347284177816 3.6712792548747837 0 0 0
314 105 1 0.5897 -0.09580492237868832 15.152073008966031 2.102036495445167 1 0 0
367 123 2 -1.1794 1.1227216106840174 16.382183394047495 2.5220571750970295 0 0 0
252 84 1 0.5897 3.028786767858829 14.330157057701017 0.6845502688322929 0 0 0
368 123 1 0.5897 2.0371331976823592 16.123251546883992 2.407710817351377 0 0 0
180 60 1 0.5897 1.9493870288770623 13.597124011801244 4.101488406404823 0 0 0
406 136 2 -1.1794 3.6739925440279775 15.582126082251222 1.7247604709441338 0 0 0
407 136 1 0.5897 4.5538272084560685 15.302772141056678 1.9781541298269005 0 0 0
369 123 1 0.5897 1.1025599999506923 16.822372613800077 3.37175969539023 0 0 0
184 62 2 -1.1794 5.315871730059124 12.325807167811236 0.4085593953194322 0 0 0
499 167 2 -1.1794 -2.346310800115912 16.266379196338924 0.22643086684930372 1 0 0
771 257 1 0.5897 -0.07726133824708459 11.73815046171849 0.1383157987909486 1 0 1
269 90 1 0.5897 -3.5097506594359045 12.989110478921889 0.9733700252201214 1 0 0
224 75 1 0.5897 -0.3436641256891626 11.37763922733804 3.966950303585037 0 0 0
178 60 2 -1.1794 1.9824661426571408 13.990877469948591 4.973297905512571 0 0 0
421 141 2 -1.1794 -2.5151924111619577 16.011585740888883 4.929974101916598 1 0 0
425 142 1 0.5897 -4.2497525851904925 16.152240333471504 4.8956191136450915 1 0 0
177 59 1 0.5897 0.07737509729069192 14.3849517154747 5.163125125392851 0 0 0
179 60 1 0.5897 2.103252422464731 13.249792087774022 5.566956419772531 0 0 0
211 71 2 -1.1794 -0.5685804691407803 12.304305616959883 7.5733940400265825 0 0 0
212 71 1 0.5897 -0.7166735215212712 12.836121212951284 8.355296367375484 0 0 0
213 71 1 0.5897 -0.7286021802849256 12.90180321140174 6.842895010345639 0 0 0
226 76 2 -1.1794 2.1278481652033694 11.772121219063283 6.68655195287807 0 0 0
227 76 1 0.5897 1.358570759848135 12.073688265165188 7.16969983813491 0 0 0
232 78 2 -1.1794 2.043965935607618 14.626643437215835 8.443499659086957 0 0 0
279 93 1 0.5897 -5.0615707683982905 14.270473987422745 7.3683893345078495 1 0 0
234 78 1 0.5897 1.3643442195387268 15.04135043380648 7.912010470455066 0 0 0
1004 335 1 0.5897 -5.023449518901125 16.813333615442865 9.066034114366712 1 0 0
267 89 1 0.5897 -3.63991596671904 12.805798846356002 8.446164418021246 1 0 0
277 93 2 -1.1794 -4.184623027405437 14.072457415235803 7.039792627909604 1 0 0
278 93 1 0.5897 -3.6550282530752782 14.826400165981568 7.2994151575859 1 0 0
756 252 1 0.5897 -1.4738402488287976 14.443512799334904 9.341856628046223 0 0 0
175 59 2 -1.1794 -0.7740356745323718 13.972608353796923 5.309375112779894 0 0 0
326 109 1 0.5897 -3.159511773796538 12.076740076979295 5.213212297959023 1 0 0
327 109 1 0.5897 -4.117625742644792 13.201813417043198 5.541788590394692 1 0 0
372 124 1 0.5897 0.28270684912588395 16.857747991357392 6.494519957512949 0 0 0
403 135 2 -1.1794 -2.2845228757253917 15.667961209698452 8.182666088191697 0 0 0
370 124 2 -1.1794 0.22728220259457066 16.318918459751096 7.283702590312724 0 0 0
404 135 1 0.5897 -1.4504001618275102 15.866857988630223 7.757330538873037 0 0 0
405 135 1 0.5897 -2.42910938483742 16.400493809075755 8.781515218034723 0 0 0
340 114 2 -1.1794 3.5050222971975877 16.305366118427926 5.130338921161745 0 0 0
690 230 1 0.5897 1.9805614501438749 13.014891595787697 9.54505657496879 0 0 0
233 78 1 0.5897 2.7675596421813324 14.478307862405547 7.834765447112914 0 0 0
341 114 1 0.5897 2.953008552443734 15.523514127689879 5.113772396475206 0 0 0
325 109 2 -1.1794 -3.7916332351507664 12.673866282944536 4.813010662429042 1 0 0
176 59 1 0.5897 -1.4106720300047204 14.658411464137483 5.1078883962167 0 0 0
422 141 1 0.5897 -2.2338237671292243 16.814731596030263 5.3681807847692165 1 0 0
266 89 1 0.5897 -3.210685940560602 11.811124565191163 9.50368556227282 1 0 0
265 89 2 -1.1794 -3.6818062716514035 12.63617052233504 9.387265829669204 1 0 0
462 154 1 0.5897 -5.032650239105715 16.804397754362448 6.566502543215526 1 0 0
371 124 1 0.5897 0.3673635658826515 16.933370895343465 8.004144333957015 0 0 0
688 230 2 -1.1794 2.091239150634774 12.314016946822958 10.187523121908761 0 0 0
925 309 2 -1.1794 -5.40032013223203 16.25344830715946 14.358417970988986 1 0 0
1003 335 2 -1.1794 -5.4361086477808325 16.375714085949518 9.810591933810494 1 0 0
718 240 2 -1.1794 -1.236245061709841 12.511630480993556 12.05654678007648 0 0 0
719 240 1 0.5897 -1.2145531929130113 13.02778596446131 11.250744727384026 0 0 0
720 240 1 0.5897 -1.1477480761545333 13.157301375675411 12.757591775844228 0 0 0
682 228 2 -1.1794 -0.899049025867126 14.120594007142714 14.255708004192371 0 0 0
1005 335 1 0.5897 -4.733947911275834 15.857150780639168 10.203509156232068 1 0 0
912 304 1 0.5897 1.053655473887975 15.415885648978222 11.73032139023438 0 0 0
728 243 1 0.5897 -2.9377141181950135 12.122994287718273 12.485747593703431 0 0 0
729 243 1 0.5897 -3.9726463097518825 12.645626140625234 13.45909904525657 0 0 0
755 252 1 0.5897 -0.1353569828220884 14.4400793725977 10.049503636251993 0 0 0
727 243 2 -1.1794 -3.765107409279813 11.891333827077242 12.907638430259633 0 0 0
873 291 1 0.5897 -2.481516856863497 15.817922627641012 11.796900282950809 0 0 0
784 262 2 -1.1794 -6.168207027216798 14.119088770589665 11.956530860954356 1 0 0
911 304 1 0.5897 -0.262313887571914 16.16158683669044 11.665836166510516 0 0 0
786 262 1 0.5897 -6.221712383499524 13.73053098422406 12.829666380012425 1 0 0
817 273 2 -1.1794 -3.5591558084065227 14.640340098339154 11.10837198845982 1 0 0
818 273 1 0.5897 -4.345589996660431 14.396716585566942 11.596613891581882 1 0 0
819 273 1 0.5897 -3.4568985466951627 13.94677802101818 10.456706722593001 1 0 0
774 258 1 0.5897 -5.519132877496256 12.310294036611962 9.656718258664164 1 0 0
910 304 2 -1.1794 0.4760328298590957 15.881128502746781 11.125151087247579 0 0 0
871 291 2 -1.1794 -1.990529695690276 16.588853010654624 12.081302720391042 0 0 0
831 277 1 0.5897 -7.462270950496646 12.088535752973772 14.110686957435025 1 0 0
846 282 1 0.5897 0.6864207040966432 16.967101602232674 14.223183200871977 0 0 0
785 262 1 0.5897 -6.857308971223707 14.783370420657084 11.946747504075633 1 0 0
754 252 2 -1.1794 -0.8069488802077642 13.855932346704769 9.697242519340678 0 0 0
773 258 1 0.5897 -6.483984607294054 12.861758411246266 10.684611926927321 1 0 0
772 258 2 -1.1794 -6.452041658319725 12.374942715663668 9.861108500244795 1 0 0
726 242 1 0.5897 0.11391552134028338 11.461253790776889 12.7838674142908 0 0 0
680 227 1 0.5897 -2.7848929083840543 14.265205877233361 14.37234393533784 0 0 0
829 277 2 -1.1794 -6.7752973176492 12.716447080211873 14.334604141708317 1 0 0
684 228 1 0.5897 -0.2882202866560899 14.837500386239245 14.426697150968193 0 0 0
928 310 2 -1.1794 -8.077301838439165 16.464275383783303 14.667930972538908 1 0 0
874 292 2 -1.1794 -3.030618807409013 16.432475198797214 16.959976957337826 0 0 0
875 292 1 0.5897 -2.842863864095004 16.788945075675095 16.0917253746935 0 0 0
876 292 1 0.5897 -2.3764093307967977 15.744771542210318 17.08373815294816 0 0 0
907 303 2 -1.1794 -5.38339063249736 15.831805532241214 18.198035632384812 0 0 0
681 227 1 0.5897 -3.688099069597526 13.815952552636151 15.501124382787111 0 0 0
185 62 1 0.5897 -1.1769753862587615 13.222503087065322 19.001847477321686 0 0 -1
830 277 1 0.5897 -7.168367046369284 13.272437401252624 15.007269783218058 1 0 0
715 239 2 -1.1794 -3.4309323071988036 12.642880215013296 17.05095443620169 0 0 0
716 239 1 0.5897 -3.5227178326184605 13.022449392168376 17.924827307070476 0 0 0
717 239 1 0.5897 -2.524469409721199 12.337262595594636 17.016182027886014 0 0 0
730 244 2 -1.1794 -0.8637751734339076 12.009774314673344 16.075815508926983 0 0 0
736 246 2 -1.1794 -1.0119289005307417 14.711491820729515 17.907758055581958 0 0 0
909 303 1 0.5897 -4.532640982532949 15.950763621589966 17.775840978851537 0 0 0
683 228 1 0.5897 -0.6460325558994011 13.436756503159277 14.875873682689276 0 0 0
251 84 1 0.5897 -4.542317217822555 14.410756810349884 19.047977601395296 0 0 -1
781 261 2 -1.1794 -7.180394344636423 14.0806146038507 16.851551055427255 1 0 0
782 261 1 0.5897 -7.037533633191032 13.482418561268217 17.585035747549774 1 0 0
783 261 1 0.5897 -8.05383153368724 14.441774119510695 17.00294228206704 1 0 0
806 269 1 0.5897 -5.86756858609453 11.648896172260185 15.333218893883236 1 0 0
908 303 1 0.5897 -5.916982337478845 15.384462423190183 17.541153570263038 0 0 0
737 246 1 0.5897 -0.6280117211983729 15.395183492101689 18.456798946668044 0 0 0
930 310 1 0.5897 -7.145221137501189 16.303509960637356 14.520749599237325 1 0 0
738 246 1 0.5897 -0.3152383769258229 14.476583112328017 17.294912095587467 0 0 0
807 269 1 0.5897 -4.786577226806431 11.491525023582794 16.38152510141537 1 0 0
927 309 1 0.5897 -5.189349180321191 16.923473553999138 15.008641102514437 1 0 0