LAMMPS data file via write_data, version 30 Jul 2021, timestep = 18000000

1008 atoms
2 atom types
672 bonds
1 bond types
336 angles
1 angle types

-3.0910535708110523 14.7010525703665 xlo xhi
-0.16403854368694049 22.74403754368594 ylo yhi
-0.009329574186292433 19.239327574184244 zlo zhi
-0.09904007007377791 -6.7915165410759 -0.10407477840484237 xy xz yz

Masses

1 1.008
2 15.999

Pair Coeffs # lj/cut/tip4p/long/omp

1 0 0
2 0.21084 3.1668

Bond Coeffs # harmonic/omp

1 450 0.9572

Angle Coeffs # harmonic/omp

1 55 104.52

Atoms # full

122 41 1 0.5897 -2.370083838863346 2.1682871683354237 1.336426298716699 1 0 0
123 41 1 0.5897 -3.37977583514517 2.5475241115739182 2.3989432846772636 1 0 0
56 19 1 0.5897 -1.4233804176977982 3.732172407282311 3.210607263778488 0 0 0
121 41 2 -1.1794 -2.4438817775122352 2.5750175281524856 2.1998295887734263 1 0 0
19 7 2 -1.1794 1.0858747421721224 2.6624057986394565 0.32750459085978995 0 0 0
86 29 1 0.5897 -2.3306266225259757 1.3566069763219404 3.8894272438353705 1 0 0
55 19 2 -1.1794 -0.656146730445923 4.214794005210676 3.518396944304865 0 0 0
158 53 1 0.5897 -4.1713110334979335 4.348347858268683 4.322923208932035 1 0 0
482 161 1 0.5897 -1.0469762912692246 0.0355921639883898 1.0811741286587457 1 1 0
57 19 1 0.5897 -0.07327815254380576 4.248181265918758 2.7597498877816493 0 0 0
134 45 1 0.5897 -2.5692540932487504 2.682499616971702 5.938114180906689 1 0 0
69 23 1 0.5897 -2.9056890416782735 0.7595370711434333 8.66969411497186 0 0 0
87 29 1 0.5897 -3.2870237170202325 0.869066181330757 4.957125865305698 1 0 0
669 223 1 0.5897 -5.67765234174877 1.5448742738128363 8.600615437057403 1 0 0
159 53 1 0.5897 -3.3816745409830045 4.545389774111714 5.599424797968046 1 0 0
98 33 1 0.5897 -4.12221722675537 4.702063322609178 8.897875634848704 1 0 0
133 45 2 -1.1794 -2.8113654013457596 3.3114453873355947 6.6179585531147325 1 0 0
126 42 1 0.5897 -4.376128818735189 2.742196095546824 6.915657965887538 1 0 0
124 42 2 -1.1794 -5.285348516993001 2.522254416435375 7.118855699062725 1 0 0
135 45 1 0.5897 -1.976566787503307 3.660271591882288 6.930506288880274 1 0 0
67 23 2 -1.1794 -2.572397370246278 0.1450160507958606 8.015689461491823 0 0 0
667 223 2 -1.1794 -5.878584602186351 0.8754454565627336 9.25477591428826 1 0 0
85 29 2 -1.1794 -2.3997759280061244 1.206063264678642 4.832214906008234 1 0 0
157 53 2 -1.1794 -3.768962525455654 5.025230078427813 4.867301595020876 1 0 0
663 221 1 0.5897 -6.425008238437153 4.978687910149555 13.73785695692662 1 0 0
561 187 1 0.5897 -4.378717186539016 3.0877867862056156 12.384708016221515 0 0 0
559 187 2 -1.1794 -3.8752349178934646 3.6887998719180946 12.933905761266455 0 0 0
625 209 2 -1.1794 -5.643375514761122 1.9743607260101435 11.66841798113735 1 0 0
986 329 1 0.5897 -4.412826243216754 -0.042893965798084466 10.131992095699179 1 1 0
627 209 1 0.5897 -6.473558949041227 2.4508957768381263 11.672461479819953 1 0 0
626 209 1 0.5897 -5.757876101142347 1.2872582601840288 12.325068890535675 1 0 0
668 223 1 0.5897 -5.920700977444001 1.3540954695048688 10.082719730613197 1 0 0
560 187 1 0.5897 -3.5002269860517146 3.1326146351705875 13.616768494608046 0 0 0
99 33 1 0.5897 -4.2419295579846095 5.017335682141933 10.373795617354338 1 0 0
524 175 1 0.5897 -3.4363570014073437 2.8449267874001416 9.9564216341565 0 0 0
662 221 1 0.5897 -7.327557971780924 3.828369262326498 14.131091684933217 1 0 0
523 175 2 -1.1794 -2.7047343170336275 2.2357020594397796 10.055949603025969 0 0 0
618 206 1 0.5897 -6.633495826431618 5.27666669736049 11.527864315759578 1 0 0
97 33 2 -1.1794 -4.38645579819201 4.319475628433752 9.734636382500831 1 0 0
513 171 1 0.5897 -4.14478149211522 5.483126604513701 13.879806941070548 0 0 0
589 197 2 -1.1794 -5.780357361545125 0.48178166872776107 14.233142634396293 1 0 0
593 198 1 0.5897 -7.587829825182839 0.3625640105886314 14.162703171129158 1 0 0
605 202 1 0.5897 -6.224147388988099 4.054062558642903 9.731461926579817 1 0 0
164 55 1 0.5897 -8.612819398667188 1.1406405183429849 18.383260115773716 1 0 -1
602 201 1 0.5897 -8.256989713174413 4.2632454885512026 18.760863187413626 1 0 0
637 213 2 -1.1794 -5.322856030081998 2.7681364659440426 16.07081093863918 1 0 0
590 197 1 0.5897 -5.418709386615948 1.1598920390971368 14.80389126595806 1 0 0
628 210 2 -1.1794 -8.052497885027726 1.8992101949429925 16.851616571970272 1 0 0
603 201 1 0.5897 -6.852612886731043 3.7841477006714133 19.060994775927252 1 0 0
638 213 1 0.5897 -6.041231143151357 2.7020442051722307 16.700054816174777 1 0 0
639 213 1 0.5897 -5.6865255162751325 3.2731506905495777 15.343535258087927 1 0 0
571 191 2 -1.1794 -5.803476700821509 0.23726102629702095 18.13942286612621 0 0 0
630 210 1 0.5897 -8.102988835749969 1.413553980582732 16.028247418834816 1 0 0
573 191 1 0.5897 -6.524142323535744 -0.15066767987876578 17.643002378742747 0 0 0
20 7 1 0.5897 -5.5973060979873575 1.9958692770483237 18.809160017079513 0 0 -1
629 210 1 0.5897 -8.488781967231354 2.731061499784799 16.666929382082188 1 0 0
165 55 1 0.5897 -9.64338812398977 0.17083962502085331 18.921705019370975 1 0 -1
601 201 2 -1.1794 -7.347037183138637 4.55868978541557 18.792691688794417 1 0 0
163 55 2 -1.1794 -8.979955962423617 0.8023410051391767 19.200044291821442 1 0 -1
661 221 2 -1.1794 -6.707057243522787 4.461461835482513 14.492382627409073 1 0 0
290 97 1 0.5897 -3.7337393419383753 10.175476090065539 2.7237209805816063 1 0 0
332 111 1 0.5897 -2.181751458160575 9.210632558579727 0.9119990110171269 1 0 0
331 111 2 -1.1794 -1.6949623781457412 8.838817622180434 0.1763417284938909 1 0 0
289 97 2 -1.1794 -2.9094983141542685 9.822089112316357 2.388870234273405 1 0 0
145 49 2 -1.1794 -0.8062522530639482 6.651737637830076 1.4273486627898928 1 0 0
9 3 1 0.5897 -1.0382216985546266 5.73403643304061 4.506777541663334 0 0 0
147 49 1 0.5897 -0.553323804721209 5.902240629020419 0.8881226426598607 1 0 0
114 38 1 0.5897 -2.387987831839282 6.351411474121824 2.2143023045876853 1 0 0
255 85 1 0.5897 -2.6575029490553312 8.794253402354148 3.901062427448078 1 0 0
146 49 1 0.5897 -1.183198349347995 7.276760475101193 0.80804024850665 1 0 0
112 38 2 -1.1794 -3.3230726337534606 6.3265232155923465 2.4176064055976516 1 0 0
113 38 1 0.5897 -3.369465672345684 5.926025436053423 3.2857994531907053 1 0 0
291 97 1 0.5897 -2.312140315751237 10.570155506234103 2.3838503474358195 1 0 0
187 63 2 -1.1794 0.9280340668330878 10.42804703648916 0.6094701875309931 0 0 0
200 67 1 0.5897 0.3906489101894701 7.723788652876347 2.155119046178354 0 0 0
224 75 1 0.5897 -0.642740529708747 11.234946259046513 3.699954278926908 0 0 0
303 101 1 0.5897 -1.3463818505516967 10.913001546722557 6.722095862583211 1 0 0
301 101 2 -1.1794 -2.2112133392296047 10.52473372398651 6.589232517134777 1 0 0
109 37 2 -1.1794 -4.362772203067346 6.083124634670922 7.391217213497201 1 0 0
292 98 2 -1.1794 -4.86946890567361 10.297058269795906 7.568432548517651 1 0 0
293 98 1 0.5897 -3.9568776513117347 10.335176091965403 7.281927151932728 1 0 0
236 79 1 0.5897 -3.0909653477574466 7.023520821028361 8.13790992810853 0 0 0
294 98 1 0.5897 -4.859390129350881 9.710261641319057 8.324678974027298 1 0 0
237 79 1 0.5897 -2.754752276715588 8.280026397567118 8.912937450942005 0 0 0
235 79 2 -1.1794 -2.3963939226007076 7.669151526649089 8.268856416687587 0 0 0
302 101 1 0.5897 -2.0519556294825763 9.774047259608643 6.016882303669239 1 0 0
257 86 1 0.5897 -4.549641096559004 8.655334471850823 5.367107742077689 1 0 0
111 37 1 0.5897 -5.260874072086644 6.3928922636297525 7.508609601186946 1 0 0
110 37 1 0.5897 -4.328801314189487 5.783950327982521 6.4825560227226084 1 0 0
253 85 2 -1.1794 -2.7281742282749946 8.566437116991075 4.828098819636704 1 0 0
7 3 2 -1.1794 -0.8766982677407986 6.528486565046595 5.015921539362989 0 0 0
837 279 1 0.5897 -6.058286977406264 7.980505820076713 9.103981717069008 1 0 0
254 85 1 0.5897 -2.140558967843047 7.818606503091844 4.9368993939879715 1 0 0
8 3 1 0.5897 -1.0151025204595108 6.263021044573323 5.925135637687071 0 0 0
793 265 2 -1.1794 -5.878350916906173 9.448645696442046 12.115585487977263 1 0 0
616 206 2 -1.1794 -6.523137084443404 5.965513990496331 12.18338973125538 1 0 0
836 279 1 0.5897 -4.960809256668361 7.610024601542614 10.078650898452464 1 0 0
650 217 1 0.5897 -3.404209096913065 7.168804163207799 11.721576632048627 1 0 0
649 217 2 -1.1794 -4.017528115020099 6.593620689513544 11.264017541514987 1 0 0
759 253 1 0.5897 -5.783004030039237 8.506104280377237 13.596863039659857 1 0 0
651 217 1 0.5897 -4.7547739477789985 6.500249816870408 11.867432585428174 1 0 0
795 265 1 0.5897 -5.839616136026978 9.111250733990321 11.220605754039681 1 0 0
728 243 1 0.5897 -3.405849873926183 11.035640799858694 13.304869201924966 0 0 0
794 265 1 0.5897 -5.133203787972476 10.04623437123147 12.179228405454154 1 0 0
810 270 1 0.5897 -7.38416489589946 10.25182256512221 12.522525383730216 1 0 0
693 231 1 0.5897 -2.5365420263841973 9.604733375982224 10.740288002314584 0 0 0
835 279 2 -1.1794 -5.39581549533175 8.363346898115505 9.679164268994802 1 0 0
617 206 1 0.5897 -7.230393946801526 6.584703554022934 12.002502657850917 1 0 0
691 231 2 -1.1794 -2.672370872931318 10.043237658159041 9.900337710525699 0 0 0
615 205 1 0.5897 -7.143269596169044 5.714826942941851 15.83380333966485 1 0 0
796 266 2 -1.1794 -8.179832763131722 10.231444704564979 17.109625154161336 1 0 0
797 266 1 0.5897 -7.414486731574328 10.492769553693215 16.597398177672307 1 0 0
741 247 1 0.5897 -6.197683642224266 8.674182642729521 18.375064892334997 0 0 0
805 269 2 -1.1794 -5.6033954054563 10.790282764880192 15.893243365394575 1 0 0
333 111 1 0.5897 -8.278614159598852 9.486732157405665 18.870241123679648 1 0 -1
653 218 1 0.5897 -9.0979254967481 6.766264109680571 17.36374652958787 1 0 0
740 247 1 0.5897 -6.241917414010548 7.594697145448995 17.31434003115571 0 0 0
613 205 2 -1.1794 -7.161059996047469 6.261858048747055 16.61917524679902 1 0 0
758 253 1 0.5897 -5.390603431747641 9.011557521358005 14.96887998243139 1 0 0
739 247 2 -1.1794 -5.637098390792511 8.08118468388462 17.874539727801665 0 0 0
762 254 1 0.5897 -8.638843215007025 9.305490102940615 15.769248576073654 1 0 0
757 253 2 -1.1794 -5.7921294288489715 8.265487200087096 14.523301873935075 1 0 0
512 171 1 0.5897 -4.73796036318409 6.687975817363267 14.579066178650645 0 0 0
761 254 1 0.5897 -7.848995658846218 8.433673257712025 14.816156662175302 1 0 0
614 205 1 0.5897 -7.255236084282396 5.641147475020096 17.341809679863744 1 0 0
798 266 1 0.5897 -8.810469869787568 10.939299415493577 16.976926721406723 1 0 0
511 171 2 -1.1794 -3.9699055419477265 6.116657336237172 14.575822581405145 0 0 0
315 105 1 0.5897 -0.8413389962552227 13.731317265964327 1.2012582674812347 1 0 0
314 105 1 0.5897 -0.30514049831945655 14.956079995007036 1.9117795786021343 1 0 0
280 94 2 -1.1794 -3.7555790571433576 13.664062908220606 2.5370665083885977 1 0 0
225 75 1 0.5897 -1.2237721187959312 12.59196146407497 3.3633727039297296 0 0 0
223 75 2 -1.1794 -1.0597183722258494 11.725206551635202 2.991435245018471 0 0 0
282 94 1 0.5897 -2.83686950712344 13.87924885012716 2.37579344610163 1 0 0
313 105 2 -1.1794 -1.1184700692522034 14.493208093189505 1.7103637468368942 1 0 0
281 94 1 0.5897 -3.7519284991498614 13.213241126228642 3.3814784291553073 1 0 0
501 167 1 0.5897 -1.553239902736557 15.85498687457739 0.40311887356271164 1 0 0
423 141 1 0.5897 -2.403313052164374 16.406929242844527 3.98286852526188 1 0 0
771 257 1 0.5897 -0.153208171407881 11.840157542227658 0.1965873260030887 1 0 1
175 59 2 -1.1794 -0.8189195660921955 14.054031938814207 4.6594063621249875 0 0 0
769 257 2 -1.1794 -0.8504394782816371 12.467985912419316 0.006782083710978375 1 0 1
770 257 1 0.5897 -1.6601604618027441 11.979070919628516 0.1541814115212444 1 0 1
267 89 1 0.5897 -3.7196766010025457 12.933465577200424 8.909852282047826 1 0 0
403 135 2 -1.1794 -2.2238026700385114 15.581885902991099 8.23251138798181 0 0 0
327 109 1 0.5897 -3.8006801772701 12.94262944796996 5.603631185595838 1 0 0
404 135 1 0.5897 -1.503168291804593 15.800071037952014 7.641335738208254 0 0 0
277 93 2 -1.1794 -4.174058598069654 13.864883566598076 7.185376505138435 1 0 0
278 93 1 0.5897 -3.6780676416045237 14.575588703548569 7.591952331167124 1 0 0
279 93 1 0.5897 -5.041752968661125 13.917949105824443 7.586142054888004 1 0 0
405 135 1 0.5897 -2.534196886058183 16.42813469355147 8.555033548375851 0 0 0
326 109 1 0.5897 -2.8065127201917512 11.814650546953379 5.425731924806062 1 0 0
1005 335 1 0.5897 -5.092889831312653 16.518698780102845 9.122266997803996 1 0 0
462 154 1 0.5897 -4.906644120751465 16.641456887749747 6.721728859262201 1 0 0
421 141 2 -1.1794 -2.360988969931145 16.16463149246386 4.907949472028906 1 0 0
425 142 1 0.5897 -3.9186847330331585 16.201249517251092 4.956346115739124 1 0 0
424 142 2 -1.1794 -4.875868387004687 16.196207403596993 4.964972336064411 1 0 0
318 106 1 0.5897 -6.047320861265308 14.977461108771026 9.090678466534404 1 0 0
325 109 2 -1.1794 -3.491115524650466 12.29993214981764 4.965231231100836 1 0 0
176 59 1 0.5897 -1.2792329458762142 14.853753658388182 4.914430690926018 0 0 0
786 262 1 0.5897 -6.749690484385605 13.512629032208244 12.975497543630748 1 0 0
817 273 2 -1.1794 -3.751894754693994 14.662129120398157 11.777764303072484 1 0 0
772 258 2 -1.1794 -6.471616522663668 12.111009353349983 10.271230732811551 1 0 0
819 273 1 0.5897 -4.601259385536659 14.610558632195024 12.216293948243468 1 0 0
818 273 1 0.5897 -3.8282466322931423 14.062602267027087 11.03539225375498 1 0 0
729 243 1 0.5897 -4.5844958541218315 11.91608308393146 12.947632547172038 0 0 0
784 262 2 -1.1794 -6.40298559599775 13.94115119602548 12.192835102705372 1 0 0
785 262 1 0.5897 -7.157100148694744 14.390640223940721 11.811386808076932 1 0 0
773 258 1 0.5897 -6.658086916329987 12.614556122511843 11.063731514303903 1 0 0
727 243 2 -1.1794 -3.8887640720921652 11.387158083598072 12.556973027252317 0 0 0
925 309 2 -1.1794 -5.685187154795817 16.40010137973718 14.299636612044042 1 0 0
1003 335 2 -1.1794 -5.408640370197475 16.28013885938686 9.993885506039955 1 0 0
1004 335 1 0.5897 -4.615924128949885 16.067006137308887 10.486175972190813 1 0 0
831 277 1 0.5897 -7.761182133359974 12.019572509585286 13.879317703232038 1 0 0
774 258 1 0.5897 -5.516615940214906 12.111224850897566 10.205827806595986 1 0 0
829 277 2 -1.1794 -7.062571649621922 12.511876924857136 14.310474262658232 1 0 0
265 89 2 -1.1794 -3.808867517252799 12.657011102625406 9.821939266832041 1 0 0
266 89 1 0.5897 -3.3347545917484642 11.826659571758247 9.868466199009653 1 0 0
907 303 2 -1.1794 -5.68489315398503 15.61874041205738 17.693702558410248 0 0 0
908 303 1 0.5897 -5.068108681532484 16.082724679857563 17.12735694331653 0 0 0
928 310 2 -1.1794 -8.324396966466473 16.335996939153972 15.049571822989114 1 0 0
783 261 1 0.5897 -7.577133533832046 13.357663471184049 17.697410753949885 1 0 0
781 261 2 -1.1794 -7.658418106895368 13.707370431762502 16.810081045662802 1 0 0
830 277 1 0.5897 -7.451271349295123 12.809731121063168 15.133013064571829 1 0 0
782 261 1 0.5897 -7.039798896736032 14.437429329711689 16.782096744304276 1 0 0
680 227 1 0.5897 -4.596251322370524 15.023000720733743 14.832051007490072 0 0 0
807 269 1 0.5897 -4.987954109730111 11.367457242445457 16.345419067679597 1 0 0
806 269 1 0.5897 -5.963899638259928 11.328838241603707 15.188789845848197 1 0 0
679 227 2 -1.1794 -4.107530871269205 14.209912491202047 14.960377091201975 0 0 0
909 303 1 0.5897 -5.138188045875835 15.02520468526195 18.208587631646964 0 0 0
500 167 1 0.5897 -9.525395805479146 15.768168247349461 18.70439173739021 1 0 -1
929 310 1 0.5897 -8.17791032184418 16.84268006212742 15.848426088831236 1 0 0
927 309 1 0.5897 -6.599638230368124 16.16617319638621 14.459038173228594 1 0 0
499 167 2 -1.1794 -8.891259617289373 16.34221989949819 19.13412329531167 1 0 -1
495 165 1 0.5897 -3.7187174597741137 20.78271195316499 4.267773186042839 1 0 0
483 161 1 0.5897 -1.2940414901290838 22.10508545407359 2.332993276542498 1 0 0
393 131 1 0.5897 -1.2494243968192313 20.39693183997693 4.105695473398557 0 0 0
391 131 2 -1.1794 -1.3186559464886167 19.788987293629567 3.3694865904647444 0 0 0
449 150 1 0.5897 -3.31418958916474 21.288884802477277 2.137591354047259 1 0 0
481 161 2 -1.1794 -0.6510216720848088 22.386907966190854 1.682214394123452 1 0 0
457 153 2 -1.1794 -2.9118518911165565 17.352197174445642 2.365248326769611 1 0 0
938 313 1 0.5897 -0.4364230231843935 20.78479579125011 0.6647804393700675 1 0 1
355 119 2 -1.1794 0.9904896473817049 17.96753177628419 0.48996855197590033 0 0 0
459 153 1 0.5897 -2.7066992689776974 18.27920780153689 2.4881962454771585 1 0 0
448 150 2 -1.1794 -3.3109354807990035 21.907077978864812 2.8685070273411606 1 0 0
392 131 1 0.5897 -0.586716123129146 20.020380967549556 2.797536361438533 0 0 0
458 153 1 0.5897 -2.598360000479304 17.151938451906858 1.4832211267856057 1 0 0
937 313 2 -1.1794 -0.8696150540966419 20.033568062892826 0.259256877524289 1 0 1
939 313 1 0.5897 -0.1704334704787942 19.391716530749093 0.13450852253973192 1 0 1
437 146 1 0.5897 -2.541721593175566 20.0992521620782 0.5770049008480328 1 0 0
450 150 1 0.5897 -4.037341397389369 22.502217814884162 2.6829057251044515 1 0 0
414 138 1 0.5897 -0.42464707384237954 18.155352089728638 4.242493818276602 0 0 0
494 165 1 0.5897 -4.446358876264884 20.75866933280929 5.595206760468434 1 0 0
471 157 1 0.5897 -3.4605471836606925 18.187846248020115 6.893241017484929 1 0 0
345 115 1 0.5897 -1.1612455033686906 22.672886366788063 5.165400904994988 0 0 0
470 157 1 0.5897 -2.9736506550295303 18.97807819304797 5.697083752501184 1 0 0
445 149 2 -1.1794 -4.751544563033851 21.72770963311516 7.073961685740292 1 0 0
446 149 1 0.5897 -4.449038576230343 20.99015801802164 7.603928426956146 1 0 0
460 154 2 -1.1794 -4.906593005293063 17.24910655986836 7.461439851898645 1 0 0
469 157 2 -1.1794 -2.665093682422022 18.430818813640137 6.419286340341912 1 0 0
343 115 2 -1.1794 -0.6969053923421216 21.840627464457548 5.074821648564406 0 0 0
493 165 2 -1.1794 -4.154167848348605 20.191248841931525 4.88178744686516 1 0 0
433 145 2 -1.1794 -4.039942954990767 19.776101160820517 9.02405673002763 1 0 0
435 145 1 0.5897 -4.945006197749619 19.49531182102205 9.159668274324522 1 0 0
461 154 1 0.5897 -5.410244351533427 18.0026036780529 7.1533103373766584 1 0 0
422 141 1 0.5897 -2.2666152504148362 16.997689086566908 5.370098534373928 1 0 0
381 127 1 0.5897 -1.270624537049513 19.473624010216348 7.089286003397678 0 0 0
447 149 1 0.5897 -5.70555823097528 21.700537635602267 7.147368631348967 1 0 0
68 23 1 0.5897 -3.4545540575109324 22.63284957460779 7.660118332921356 0 -1 0
985 329 2 -1.1794 -4.259892359503885 22.126681683732762 10.686496151915783 1 0 0
941 314 1 0.5897 -6.694282339148785 19.847210088718086 10.517824268820416 1 0 0
953 318 1 0.5897 -7.2948856058871225 21.64922611917305 11.860527873516508 1 0 0
895 299 2 -1.1794 -3.9253125019726562 19.24969311707747 12.676759925012004 0 0 0
952 318 2 -1.1794 -6.608784306696679 21.017267470057497 12.075478716784904 1 0 0
896 299 1 0.5897 -4.704698407195426 18.8611057580922 12.279456529535803 0 0 0
998 333 1 0.5897 -6.945959963515826 20.57087709480458 13.762890960156486 1 0 0
961 321 2 -1.1794 -6.150021376608883 17.84483275373635 12.08364402570627 1 0 0
954 318 1 0.5897 -5.827638218218371 21.35204147866002 11.634859485704881 1 0 0
848 283 1 0.5897 -3.837996375153799 20.842322544768287 13.84894297022724 0 0 0
434 145 1 0.5897 -3.885364592220472 20.42682635170896 9.708945566264813 1 0 0
987 329 1 0.5897 -3.5561682752463866 22.469558790377185 11.237373342850951 1 0 0
963 321 1 0.5897 -6.0171168675584585 17.387901904931496 11.253037210943413 1 0 0
978 326 1 0.5897 -7.971655338104562 19.098344126329806 14.00282615854114 1 0 0
962 321 1 0.5897 -5.923476125137704 17.19815855462126 12.752093173471984 1 0 0
859 287 2 -1.1794 -2.5080035786407135 17.87321789270947 9.835047654112595 0 0 0
897 299 1 0.5897 -3.639780796133101 18.605404247731997 13.324576767391198 0 0 0
977 326 1 0.5897 -7.600716100484806 18.289459448485843 12.777894907951595 1 0 0
591 197 1 0.5897 -5.28475036470827 22.646852283882495 14.336317883995687 1 -1 0
860 287 1 0.5897 -3.0486551656080407 18.640581728083788 9.64736103713968 0 0 0
926 309 1 0.5897 -5.506372748877613 17.106386183811992 14.920584733663306 1 0 0
999 333 1 0.5897 -6.412864427545859 19.711570247032917 14.889556764874811 1 0 0
975 325 1 0.5897 -4.7638478406424065 18.564077318066076 16.543335671082104 1 0 0
974 325 1 0.5897 -6.235289442465064 18.266622146882995 16.739686463949536 1 0 0
973 325 2 -1.1794 -5.5786251736069685 18.42363884136168 16.061049900830405 1 0 0
949 317 2 -1.1794 -8.08654820485158 21.459271529379293 17.297017893498726 1 0 0
950 317 1 0.5897 -7.894775404799575 21.031589095319077 16.462344486223582 1 0 0
951 317 1 0.5897 -7.9880167164619 20.76617326078992 17.949923029783932 1 0 0
965 322 1 0.5897 -8.921761742923874 18.383406628112077 16.992805698112857 1 0 0
964 322 2 -1.1794 -8.129848871408626 17.94367020075481 17.30218691224018 1 0 0
966 322 1 0.5897 -8.423486342519382 17.413950759311305 18.043497644146377 1 0 0
997 333 2 -1.1794 -7.019668221632019 20.428975382070725 14.706651211776313 1 0 0
572 191 1 0.5897 -5.4966300244788595 22.405255099382735 18.59095623123648 0 -1 0
357 119 1 0.5897 -5.983846195515433 17.198635625834783 19.074550244845177 0 0 -1
31 11 2 -1.1794 1.337787856369622 1.1124041980833892 2.5746873329356674 0 0 0
54 18 1 0.5897 3.1107999758897726 3.3649231636569366 3.142082379725204 0 0 0
18 6 1 0.5897 5.096145472552292 3.952548609639062 0.31931581471868237 0 0 0
46 16 2 -1.1794 1.9264379686440662 4.723594803440864 2.527035390353716 0 0 0
53 18 1 0.5897 4.5417634965057285 2.9165812518198586 2.93381772937828 0 0 0
32 11 1 0.5897 1.1105593637194344 1.512396769227661 3.4141785992908833 0 0 0
52 18 2 -1.1794 3.869365394456185 3.0135270748612326 3.6082285688810005 0 0 0
527 176 1 0.5897 3.1023728910478487 2.7191868419321015 0.5612344615939338 0 0 1
47 16 1 0.5897 2.1444273142354486 5.241470285597059 1.7520265253203138 0 0 0
70 24 2 -1.1794 3.8309464596666727 0.18312624988163267 1.8440065990181809 0 0 0
71 24 1 0.5897 3.1855579427454916 0.5598988743940684 2.442281081161537 0 0 0
528 176 1 0.5897 4.201375680285304 1.718612143602825 0.8496003084083232 0 0 1
16 6 2 -1.1794 5.492252746800446 4.8130895732845005 0.45748408850064953 0 0 0
48 16 1 0.5897 2.0251775285581815 5.33320628494793 3.2584820789847577 0 0 0
33 11 1 0.5897 0.5520742759184056 0.6293072125072581 2.3185362929851943 0 0 0
21 7 1 0.5897 1.1479149579220271 2.0655847834390677 1.0733490459744068 0 0 0
6 2 1 0.5897 3.827994935011853 1.5176250253630164 4.605676955893264 0 0 0
526 176 2 -1.1794 3.9543652032988783 2.4184709608499544 0.24501064742737444 0 0 1
43 15 2 -1.1794 -0.7719248993106635 4.94079452436967 7.301892952524719 0 0 0
58 20 2 -1.1794 1.875408431921631 4.3263756897118615 6.692785833582147 0 0 0
77 26 1 0.5897 0.5392686249470344 1.9031249705334337 5.907146014958563 0 0 0
34 12 2 -1.1794 -0.08440279414924223 1.103994412168101 7.428095095841093 0 0 0
35 12 1 0.5897 -0.08338642626651405 1.7826956956620121 8.10321781724684 0 0 0
44 15 1 0.5897 -0.8189781590353653 5.274869883665522 8.197720617116472 0 0 0
59 20 1 0.5897 1.680211747923149 3.7266136487738453 5.972681577422 0 0 0
45 15 1 0.5897 0.14951168004569615 4.712454619610925 7.178862192228151 0 0 0
36 12 1 0.5897 -1.005824296416011 0.8634378313511237 7.331049824743312 0 0 0
60 20 1 0.5897 2.6142926556458903 3.9223712392612224 7.147800363943954 0 0 0
5 2 1 0.5897 3.455536621714593 0.14738647405905048 5.1313515878448435 0 0 0
402 134 1 0.5897 1.297157619093607 -0.017188102390880255 8.039639795565435 0 1 0
522 174 1 0.5897 2.035929093025536 5.408311597492658 9.26659872333568 0 0 0
401 134 1 0.5897 2.6445609421210943 -0.08491628291202127 8.726436360855928 0 1 0
76 26 2 -1.1794 0.9685550204521398 2.291844165487201 5.144905362560617 0 0 0
78 26 1 0.5897 0.3608808930634835 2.9685530899962207 4.846360933718041 0 0 0
536 179 1 0.5897 -2.382864946871468 0.9152744540502282 12.988342694250793 0 0 0
550 184 2 -1.1794 -1.3966443021375143 4.700791421825231 12.170631337028064 0 0 0
556 186 2 -1.1794 0.8375517903243965 3.296591764439032 12.90187447106189 0 0 0
558 186 1 0.5897 0.05381974662071087 3.7543268712299636 12.59773437079016 0 0 0
23 8 1 0.5897 0.3749014552111345 2.182227550479268 10.298752397103634 0 0 0
574 192 2 -1.1794 0.39750407907982943 0.5486151568150325 11.403208557707272 0 0 0
576 192 1 0.5897 -0.5058065583165945 0.38128868853225173 11.672239541011443 0 0 0
537 179 1 0.5897 -2.4174546757095063 1.118015546950723 11.488448153095362 0 0 0
535 179 2 -1.1794 -2.2060819620182084 0.46934444655261365 12.15992179022853 0 0 0
557 186 1 0.5897 0.5420105303572207 2.402229309496147 13.073036984822474 0 0 0
552 184 1 0.5897 -2.2332218087156672 4.235646066046745 12.158220895251947 0 0 0
551 184 1 0.5897 -1.4174429902520318 5.2105448805169186 12.980615660405753 0 0 0
575 192 1 0.5897 0.9137060936876376 -0.10341697071121503 11.877223224939474 0 0 0
525 175 1 0.5897 -1.92424457916059 2.78754766964486 10.003749377410962 0 0 0
520 174 2 -1.1794 2.234017222938915 4.619123506096852 9.77092877928859 0 0 0
24 8 1 0.5897 0.6559738164691198 3.6313064074944887 9.961461555312736 0 0 0
22 8 2 -1.1794 0.07254489803796504 2.903391796661611 9.74662660189287 0 0 0
539 180 1 0.5897 -3.024902928877209 1.536014078191243 17.73157821974478 0 0 0
582 194 1 0.5897 -2.778975687809611 1.766408311705845 15.372964993630104 0 0 0
564 188 1 0.5897 -1.8902979518640848 4.162499604867694 16.63805790368174 0 0 0
540 180 1 0.5897 -4.1074372124322265 0.9169816858541417 16.87315942224678 0 0 0
562 188 2 -1.1794 -0.9700977432618991 4.119088694126492 16.37789005797813 0 0 0
538 180 2 -1.1794 -3.1595296494495946 0.9264180797937152 17.005870495170768 0 0 0
563 188 1 0.5897 -0.841903565975632 4.88638951486285 15.81997383470529 0 0 0
547 183 2 -1.1794 -3.685020530890842 4.706669962806526 16.981016307871638 0 0 0
580 194 2 -1.1794 -2.4423453192362805 1.9073375701309838 14.488014627895542 0 0 0
581 194 1 0.5897 -1.5628809918375772 2.2617436130797377 14.619279329487725 0 0 0
549 183 1 0.5897 -4.350775019710082 4.043766243974718 16.7973188283783 0 0 0
548 183 1 0.5897 -3.672484581279182 5.2577636250432 16.19840521961187 0 0 0
508 170 2 -1.1794 0.5307787903976307 1.0582295991142148 14.574211542128246 0 0 0
245 82 1 0.5897 0.39257062666605913 9.451959501605122 3.97283737692162 0 0 0
694 232 2 -1.1794 3.600861798411576 9.934657402299209 0.018117060269440908 0 0 1
240 80 1 0.5897 3.240341691018606 7.221837432623233 0.9671326007250655 0 0 0
174 58 1 0.5897 3.166980330717192 9.009517444959178 4.253308346001127 0 0 0
238 80 2 -1.1794 3.5090863205135436 7.775927075125363 1.700013676385849 0 0 0
10 4 2 -1.1794 2.081924838419482 6.296865275281903 4.775503300593276 0 0 0
239 80 1 0.5897 3.725628878113879 8.617402441660515 1.2980909586330855 0 0 0
201 67 1 0.5897 1.8078625666419317 8.190933343181598 2.410782696891838 0 0 0
199 67 2 -1.1794 0.893206482342431 8.43451455179312 2.55351861643183 0 0 0
220 74 2 -1.1794 2.829432658658666 10.645209817051029 3.1532598811311185 0 0 0
188 63 1 0.5897 1.866537913817698 10.435701174366697 0.4211145333797381 0 0 0
189 63 1 0.5897 0.8363512193301355 9.826451647757072 1.348431637212245 0 0 0
221 74 1 0.5897 3.6352031720342692 10.564204482290796 2.642802539138114 0 0 0
244 82 2 -1.1794 0.37229400136189383 10.069135381114922 4.704343953763348 0 0 0
246 82 1 0.5897 0.33962215892145586 9.515419625494449 5.48452669259088 0 0 0
192 64 1 0.5897 0.2181885130000336 9.589739020858994 8.445649921701802 0 0 0
203 68 1 0.5897 -0.8214775334549254 8.233538438023807 7.609265253256226 0 0 0
202 68 2 -1.1794 -0.01967873078559279 8.486050628428401 7.1512831832250345 0 0 0
204 68 1 0.5897 0.6749476333428492 8.004049214771952 7.600045611197489 0 0 0
64 22 2 -1.1794 2.0336448878627422 7.078987564455587 8.538267553136999 0 0 0
11 4 1 0.5897 2.2007182097733082 5.71726875953923 5.527982932943105 0 0 0
228 76 1 0.5897 1.8957114643810016 11.193633305202953 5.485362023121748 0 0 0
190 64 2 -1.1794 -0.014327647647940811 10.27367098851453 9.073802960299027 0 0 0
66 22 1 0.5897 2.689603482650811 6.669950805234013 7.973624101771186 0 0 0
173 58 1 0.5897 3.2381292320451136 7.702993278805437 5.01514184133925 0 0 0
172 58 2 -1.1794 3.6231135005171913 8.578666982474344 4.976171338044972 0 0 0
65 22 1 0.5897 2.5251658780470088 7.72006927364555 9.051883657158637 0 0 0
692 231 1 0.5897 -1.7899165386023332 10.24767411988564 9.590720256495695 0 0 0
191 64 1 0.5897 0.6814439488427597 10.925526162236501 8.987462993798914 0 0 0
12 4 1 0.5897 1.188953729201672 6.629281142858719 4.8672612359627 0 0 0
703 235 2 -1.1794 -2.2780407583623683 8.323948909467795 12.146334833311666 0 0 0
744 248 1 0.5897 -0.0013554317087600687 7.652313622409166 10.432999022853785 0 0 0
587 196 1 0.5897 -1.2221509677174174 5.6260835579749555 10.627914567588542 0 0 0
742 248 2 -1.1794 0.11701734428834332 8.353797689133266 11.073582112062018 0 0 0
705 235 1 0.5897 -2.4472080521358492 8.569662052654769 13.05591778355381 0 0 0
743 248 1 0.5897 0.22344462720746439 9.145440845997474 10.545909917225735 0 0 0
704 235 1 0.5897 -1.3237383153060547 8.323144974731854 12.071358728074452 0 0 0
724 242 2 -1.1794 0.6001064710885489 10.892916311879311 12.961932283139122 0 0 0
678 226 1 0.5897 0.08733280092141538 9.355651170758938 14.077299049371709 0 0 0
534 178 1 0.5897 1.4373909307697117 6.935933115433794 12.04539970174273 0 0 0
586 196 2 -1.1794 -0.9436586538847571 6.067700723491598 9.825544815029133 0 0 0
588 196 1 0.5897 -1.6030802929360144 6.746991842385035 9.684194707386569 0 0 0
83 28 1 0.5897 -5.154972160112328 6.584280683319753 18.795766675430553 0 0 -1
570 190 1 0.5897 -0.4352505888036635 6.930576033602773 17.526247411833822 0 0 0
706 236 2 -1.1794 -3.1606739099197716 8.603191434518322 16.690404744635927 0 0 0
695 232 1 0.5897 -3.1895498456841045 9.475087335295687 18.377987525820778 0 0 0
749 250 1 0.5897 -1.8302186113222145 10.50942413741189 14.769718560877811 0 0 0