LAMMPS data file via write_data, version 30 Jul 2021, timestep = 6500000

1296 atoms
2 atom types
864 bonds
1 bond types
432 angles
1 angle types

-10.484398178440966 12.464398178440966 xlo xhi
-9.114797532712531 12.104795532712531 ylo yhi
0.2600230225081983 21.599975977500968 zlo zhi
-8.988159659291364 1.8070923268168313 2.781406674291172 xy xz yz

Masses

1 1.008
2 15.999

Pair Coeffs # lj/cut/tip4p/long/omp

1 0 0
2 0.21084 3.1668

Bond Coeffs # harmonic/omp

1 450 0.9572

Angle Coeffs # harmonic/omp

1 55 104.52

Atoms # full

282 94 1 0.5897 -10.19337111780507 -3.9390528284969024 1.569437761600732 1 1 0
280 94 2 -1.1794 -9.345313146501965 -4.381184966071164 1.53139579441262 1 1 0
299 100 1 0.5897 -6.489664550092245 -7.801743249227233 4.1589390026343835 1 1 0
163 55 2 -1.1794 -7.101076073708716 -7.905273636349718 1.1338542213585763 1 1 0
164 55 1 0.5897 -6.263034618641739 -8.2726632086729 1.4147798228036683 1 1 0
270 90 1 0.5897 -8.449514924824221 -7.240904525615707 2.255933948929075 1 1 0
269 90 1 0.5897 -9.187683116486113 -5.933051973712809 2.4463720003112486 1 1 0
268 90 2 -1.1794 -9.135832883830373 -6.828555808134387 2.780392684646183 1 1 0
324 108 1 0.5897 -6.97279872884161 -4.150295860571667 3.5863724436162263 1 1 0
73 25 2 -1.1794 -8.256002100910766 -3.6905938228659636 4.9115217198381345 1 0 0
298 100 2 -1.1794 -5.863232494287715 -7.078177288536262 4.173751742853016 1 1 0
314 105 1 0.5897 -8.83170566910616 -6.610497381821376 4.598362134981097 1 1 0
323 108 1 0.5897 -6.294507157448152 -5.484733100209689 3.3608956079573216 1 1 0
59 20 1 0.5897 -13.382460667488061 -0.8579534647794578 3.4004440118310226 1 0 0
99 33 1 0.5897 -11.530029389851254 1.6940945365372215 5.366380659402561 1 0 0
84 28 1 0.5897 -7.959412258764994 -0.3349246692714427 4.203926662030357 1 0 0
313 105 2 -1.1794 -8.777499088425596 -6.320915309272204 5.509143400909481 1 1 0
75 25 1 0.5897 -9.072763738471435 -3.308053078139803 4.590928715894024 1 0 0
261 87 1 0.5897 -6.54981977644538 -5.0141790635611 1.265127990301196 1 1 0
281 94 1 0.5897 -8.703150584456761 -3.672737200997723 1.5750909678515084 1 1 0
256 86 2 -1.1794 -11.861052790984466 -3.1086962978935944 1.9052200567618733 1 1 0
44 15 1 0.5897 -9.717165746056951 1.0782090825794235 0.4594165471011137 1 0 0
260 87 1 0.5897 -6.737154939076957 -6.3295938335595885 0.5395759960180713 1 1 0
82 28 2 -1.1794 -8.849615198795247 0.015763975237183203 4.177332638319124 1 0 0
107 36 1 0.5897 -9.155501464890335 1.5620386137781015 3.4845972293888923 1 0 0
97 33 2 -1.1794 -11.664022423840446 0.7541906664337628 5.48800728256011 1 0 0
301 101 2 -1.1794 -7.797693874299412 -2.0748039238704408 1.710405898565747 1 1 0
165 55 1 0.5897 -7.366512556828644 -8.45117917684202 0.39369871519372834 1 1 0
98 33 1 0.5897 -11.776617956545344 0.41114986086895655 4.601462128968083 1 0 0
315 105 1 0.5897 -8.556903280890342 -5.391230575625801 5.452627247782943 1 1 0
83 28 1 0.5897 -9.41328223944338 -0.7553626043238246 4.239165224591032 1 0 0
67 23 2 -1.1794 -10.53773752328637 -2.3641990444451615 4.137402319933359 1 0 0
68 23 1 0.5897 -11.20638126493966 -2.4926319008276305 4.810143357155255 1 0 0
69 23 1 0.5897 -10.993999680225059 -2.5257979722450736 3.3115259213502712 1 0 0
272 91 1 0.5897 -9.212731985448983 -1.0545422342469397 1.3154868570004785 1 1 0
271 91 2 -1.1794 -10.053589010997293 -0.6995271287218632 1.0271580545976133 1 1 0
258 86 1 0.5897 -12.312616515751868 -2.539363676710221 1.282137560202276 1 1 0
52 18 2 -1.1794 -11.986067353344867 0.1277546448010316 2.805031298928768 1 0 0
53 18 1 0.5897 -12.145670816846089 0.9885859998666859 2.418128935937046 1 0 0
54 18 1 0.5897 -11.245934886021738 -0.22406755814808577 2.3105224365831964 1 0 0
259 87 2 -1.1794 -6.538729635190169 -5.4050181267652135 0.3913947648786489 1 1 0
275 92 1 0.5897 -10.426598436707579 -7.831512419903107 3.4263731177982213 1 1 0
322 108 2 -1.1794 -6.326774842074288 -4.58673750920577 3.0311258180407568 1 1 0
273 91 1 0.5897 -10.346147910081681 -1.3011579878238875 0.3425147422315866 1 1 0
300 100 1 0.5897 -5.009805652875642 -7.497335805509702 4.063827876647468 1 1 0
74 25 1 0.5897 -7.933674645715954 -3.0618855585101246 5.557362823721891 1 0 0
420 140 1 0.5897 -8.924492781840721 -6.483723826356547 9.763459078962615 1 0 0
414 138 1 0.5897 -6.694012907664113 -4.813451848148861 7.413416835880001 1 0 0
413 138 1 0.5897 -7.517880043327184 -3.5762460552139608 7.700093815310333 1 0 0
412 138 2 -1.1794 -7.39711889311109 -4.485428078116282 7.9739222716209985 1 0 0
350 117 1 0.5897 -7.080174916725772 -4.255204365190432 9.757091838182902 0 0 0
429 143 1 0.5897 -6.279571354143759 -7.042941862253069 8.505795038052264 1 0 0
428 143 1 0.5897 -6.560083764469152 -7.028348015920852 9.993457157186054 1 0 0
427 143 2 -1.1794 -5.877706245357695 -6.837442060720097 9.349971917470226 1 0 0
627 209 1 0.5897 -10.226386465286039 -6.711039981728539 6.484230266813919 1 1 0
618 206 1 0.5897 -7.772717998678133 -7.252632515309644 6.691329628827588 1 1 0
419 140 1 0.5897 -8.781757304020115 -5.390796455056555 8.725650163584262 1 0 0
418 140 2 -1.1794 -9.434269130652353 -5.93159878125513 9.17053235388872 1 0 0
417 139 1 0.5897 -8.751095348319108 1.032223270103863 5.705469520802742 1 0 0
351 117 1 0.5897 -7.102514367651206 -2.998182877859607 10.60043313363025 0 0 0
616 206 2 -1.1794 -7.262217286989395 -7.857803463827924 7.229293779975871 1 1 0
349 117 2 -1.1794 -7.129740080502442 -3.952847229665341 10.663965751491745 0 0 0
535 179 2 -1.1794 -9.010966604696545 0.2389399134290926 9.550603214054725 1 0 0
528 176 1 0.5897 -11.999962757950952 0.6202181794215846 9.916403881949382 1 0 0
424 142 2 -1.1794 -7.838019267737977 -1.9605337335039437 7.00244771604716 1 0 0
435 145 1 0.5897 -7.545035925458663 -0.7806594447475934 9.89634005896562 0 0 0
400 134 2 -1.1794 -10.35425833033281 -0.7779052879344608 7.36330742574357 1 0 0
411 137 1 0.5897 -13.165093755157223 0.3545847402936122 6.404872586949894 1 0 0
402 134 1 0.5897 -10.767028484272751 -0.2573880593497737 6.674124680777182 1 0 0
401 134 1 0.5897 -11.077518077187294 -1.256332819646933 7.76847045442279 1 0 0
527 176 1 0.5897 -11.678895972988037 1.6299323291977448 8.835068093460906 1 0 0
522 174 1 0.5897 -9.877380187305915 2.2385579098087494 7.569315898311715 1 0 0
426 142 1 0.5897 -8.711485716273192 -1.5814384071156429 7.099768065085142 1 0 0
526 176 2 -1.1794 -12.410191346465204 1.1759607632714193 9.253721555154637 1 0 0
537 179 1 0.5897 -9.457827146621003 0.011537459705623476 8.735151366074295 1 0 0
536 179 1 0.5897 -9.641605888898924 0.024139601014608658 10.237862520077755 1 0 0
425 142 1 0.5897 -7.242447651133788 -1.216036250314895 7.087370489404452 1 0 0
633 211 1 0.5897 -5.6168574640574835 -5.994228477194994 5.6498963793523655 1 1 0
410 137 1 0.5897 -13.462081341924122 0.5594943268750754 7.875188523589204 1 0 0
433 145 2 -1.1794 -6.7681652839190765 -1.1978396160288298 10.26871221639809 0 0 0
415 139 2 -1.1794 -8.515794451804222 1.6268978088422497 6.417707970527778 1 0 0
652 218 2 -1.1794 -5.682055273303213 -5.427097874965434 12.565699120719806 0 0 0
788 263 1 0.5897 -5.06145544034705 -4.631987023289908 15.475698527398938 0 0 0
780 260 1 0.5897 -7.401725173531139 -3.9712500299342857 15.170667766912617 0 0 0
779 260 1 0.5897 -7.087946228192914 -2.97666063470486 14.073289703543567 0 0 0
778 260 2 -1.1794 -7.817930744547456 -3.3976482440932987 14.527211057935595 0 0 0
768 256 1 0.5897 -9.431692045553364 -2.580393807743082 14.864266537748566 0 0 0
654 218 1 0.5897 -6.136749972980922 -4.907412899002967 11.902769568364622 0 0 0
653 218 1 0.5897 -6.382161145218942 -5.869117605416932 13.045935591121017 0 0 0
766 256 2 -1.1794 -10.254039043985577 -2.103449368450301 14.975580520447016 0 0 0
740 247 1 0.5897 -10.765778349258436 -3.3399174864315118 12.105504366554086 1 0 0
729 243 1 0.5897 -8.049554960356408 -7.057797533277077 11.878176946171369 1 0 0
684 228 1 0.5897 -8.415525395267494 -6.469271148056544 14.252650569105242 0 0 0
682 228 2 -1.1794 -7.73732373769054 -6.859271855912934 13.701229578241914 0 0 0
663 221 1 0.5897 -8.607707948783135 -4.282066758657468 11.687401675113948 0 0 0
662 221 1 0.5897 -8.761964205063101 -4.161861991945825 13.18867887209535 0 0 0
661 221 2 -1.1794 -9.23794634739808 -4.410542413946733 12.396247515134837 0 0 0
769 257 2 -1.1794 -12.19872438862961 2.7569063427292093 12.550277873397691 0 0 0
767 256 1 0.5897 -10.931657087074186 -2.777177593278884 14.9198084148229 0 0 0
727 243 2 -1.1794 -8.027690844153174 -7.387627119645445 10.979826674602265 1 0 0
761 254 1 0.5897 -9.40510263728875 1.1945738089345745 13.073626561161996 0 0 0
770 257 1 0.5897 -11.79747583285046 2.9679000011750034 13.39339164207088 0 0 0
835 279 2 -1.1794 -11.117983767855057 -0.267098953261911 11.204013385680373 1 0 0
771 257 1 0.5897 -11.492103965835375 2.866582656964031 11.914030920278256 0 0 0
888 296 1 0.5897 -10.28993099192491 3.167032714121129 15.333940942087109 0 0 0
789 263 1 0.5897 -4.747626719707615 -4.775960433984936 14.001657698897324 0 0 0
762 254 1 0.5897 -9.07061259556099 2.269347855429375 12.06127633119662 0 0 0
760 254 2 -1.1794 -8.670839264348047 1.6880006439854007 12.708191845139481 0 0 0
792 264 1 0.5897 -11.415212860700725 0.6768478088898231 14.393991653661711 0 0 0
837 279 1 0.5897 -11.091891023177014 -0.003675225222803391 12.123928426658184 1 0 0
896 299 1 0.5897 -7.958707343493581 2.5515251971865123 15.55506863533038 0 0 0
791 264 1 0.5897 -10.584797441109266 -0.5643109010051983 14.145896871105643 0 0 0
790 264 2 -1.1794 -10.752164088660566 0.31480114219915656 13.806277916261479 0 0 0
836 279 1 0.5897 -11.185199359736227 -1.2215580232184813 11.229546459806741 1 0 0
757 253 2 -1.1794 -9.607590959062632 -5.796362472301407 15.39108012554676 0 0 0
739 247 2 -1.1794 -11.510556378988156 -2.9171685638393203 11.67793494890471 1 0 0
897 299 1 0.5897 -7.7961641326166315 2.3977888049238434 14.057731111416878 0 0 0
865 289 2 -1.1794 -12.632668471735814 1.2670150945939653 15.59298271292892 0 0 0
758 253 1 0.5897 -9.358853088545446 -5.289819499591132 16.16428922225768 0 0 0
1089 363 1 0.5897 -6.346994562028745 -4.767926408734813 17.4236143851927 0 0 0
1152 384 1 0.5897 -6.820945692144577 -4.038194044009314 19.709785156403044 0 0 0
1225 409 2 -1.1794 -8.078843311014797 -3.410300877677866 20.8523360890332 0 0 0
1227 409 1 0.5897 -8.85733259109696 -3.0365603201613887 20.439403946002756 0 0 0
1109 370 1 0.5897 -8.671947738977655 -3.448307605359682 17.67837956842378 0 0 0
1219 407 2 -1.1794 -10.290890546318535 -1.9636994156835392 20.153869326071103 0 0 0
1108 370 2 -1.1794 -9.305909029029404 -4.161555959547115 17.603841761343354 0 0 0
1129 377 2 -1.1794 -7.595009843856224 -1.9576504803989518 17.751274965757126 0 0 0
1151 384 1 0.5897 -6.0206715871488 -5.31782245395743 19.59249603533229 0 0 0
1150 384 2 -1.1794 -6.086260581114281 -4.43093114600196 19.238500728979844 0 0 0
1088 363 1 0.5897 -6.688630182403761 -5.944955972001696 16.534899360236224 0 0 0
1248 416 1 0.5897 -5.809670561576961 -1.6182115860331248 20.494979230565896 0 0 0
1097 366 1 0.5897 -8.846974131005812 -5.64845437433725 18.502403394987972 0 0 0
1217 406 1 0.5897 -11.653020360654955 3.730278449563837 17.745709255824984 0 0 0
1249 417 2 -1.1794 -11.535800474186289 1.1443366475762158 21.39080572068559 0 0 0
1130 377 1 0.5897 -7.147765231330034 -1.724168702676847 18.56479379649354 0 0 0
1143 381 1 0.5897 -8.438366478449254 -5.079197490869154 21.482646139274635 0 0 0
1096 366 2 -1.1794 -8.777474357503134 -6.542679660478412 18.83664484660906 0 0 0
1131 377 1 0.5897 -6.950282865412774 -1.7856997600429736 17.065035405613777 0 0 0
1196 399 1 0.5897 -9.5577118391342 1.217978602402896 16.63798962536169 0 0 0
1218 406 1 0.5897 -13.125074892656631 3.377019683274158 17.746596349305896 0 0 0
1110 370 1 0.5897 -10.156867171071195 -3.724285495772861 17.575380613968477 0 0 0
1195 399 2 -1.1794 -9.449754101681709 2.1655173464251494 16.556247641891133 0 0 0
1246 416 2 -1.1794 -6.234866207196947 -0.9830354513837776 19.918767154505034 0 0 0
1229 410 1 0.5897 -7.693942717507435 3.6351649884972357 18.35610075154119 0 0 0
1250 417 1 0.5897 -11.563197732212736 0.8294749551512925 20.487246505952548 0 0 0
1009 337 2 -1.1794 -11.053925029561238 3.7871716593302143 20.7721255482164 0 -1 0
1260 420 1 0.5897 -9.703644770063326 3.163744408110663 19.67150702418693 0 0 0
1259 420 1 0.5897 -8.93832170950399 1.8658949348876668 19.524858573892097 0 0 0
1258 420 2 -1.1794 -9.013425681112826 2.7461256085638883 19.156422913008683 0 0 0
1100 367 1 0.5897 -8.998011746234496 -0.8856696853509565 17.47276196857753 0 0 0
1236 412 1 0.5897 -7.834835102311581 -0.12513755619696276 20.26330605191751 0 0 0
1235 412 1 0.5897 -9.312499218130796 -0.45242598567578796 20.296833492926602 0 0 0
1234 412 2 -1.1794 -8.699072682769806 0.2818888542004281 20.322887425281664 0 0 0
1205 402 1 0.5897 -11.864169074183467 1.3709237587810588 18.42954815565247 0 0 0
1197 399 1 0.5897 -9.40809187812122 2.4810568178992316 17.459026598170162 0 0 0
1216 406 2 -1.1794 -12.252556166990852 2.984730188811307 17.71569886395931 0 0 0
1206 402 1 0.5897 -11.015902275389786 0.13061121914996576 18.246000436407435 0 0 0
1099 367 2 -1.1794 -9.756843891848252 -0.42906175407045843 17.109576979111026 0 0 0
1142 381 1 0.5897 -8.699007145526734 -6.295092827638754 20.619184587567887 0 0 0
1204 402 2 -1.1794 -11.777981528369311 0.4630204951097312 18.72017663127079 0 0 0
1087 363 2 -1.1794 -6.518755873051941 -5.0032675451814645 16.511772769110202 0 0 0
1251 417 1 0.5897 -11.367989267641207 2.083433742524912 21.312680701605842 0 0 0
1141 381 2 -1.1794 -8.627028960617082 -6.016283789245572 21.532096344356738 0 0 0
1121 374 1 0.5897 -4.758914892967062 -3.5961294115183495 18.425271849615257 0 0 0
1101 367 1 0.5897 -10.044105175159899 -0.9814586276821142 16.382504510899707 0 0 0
1221 407 1 0.5897 -10.656695021831364 -2.21959134440874 19.307075206974567 0 0 0
1226 409 1 0.5897 -7.839729765575909 -2.778187007423389 21.530227175079204 0 0 0
866 289 1 0.5897 -12.391041333584594 1.794014000763399 16.354686900890457 0 0 0
40 14 2 -1.1794 -14.791892270997241 3.7663966820270307 1.9037339213062052 1 0 0
177 59 1 0.5897 -13.947719051348777 4.519574319134049 3.2996692845872015 1 0 0
42 14 1 0.5897 -15.192055842335872 4.31333565324109 1.2277089978909348 1 0 0
85 29 2 -1.1794 -10.75583271767786 4.913636918341895 1.7961045079872935 1 0 0
55 19 2 -1.1794 -12.98228183312747 6.272352282404581 1.02465578041463 1 0 0
56 19 1 0.5897 -12.184485119895745 5.890644494723297 1.3907809122252521 1 0 0
66 22 1 0.5897 -13.231961983656053 2.9812632535082493 1.6053670957376895 1 0 0
65 22 1 0.5897 -11.760963689543242 3.33883977374391 1.6127093761883637 1 0 0
64 22 2 -1.1794 -12.358112251417655 2.591370502688399 1.58282763061567 1 0 0
191 64 1 0.5897 -12.503714295828296 6.294123509994646 4.187078587734013 1 0 0
190 64 2 -1.1794 -11.828075305710577 6.9718216391970085 4.207734220585458 1 0 0
183 61 1 0.5897 -12.10364219955654 3.7622811871314408 4.450976659796536 1 0 0
181 61 2 -1.1794 -11.352427351242426 3.33073464133701 4.858008889684583 1 0 0
176 59 1 0.5897 -14.220676422394726 4.666605300069696 4.781527724995554 1 0 0
175 59 2 -1.1794 -13.558040563678926 4.840385859118262 4.113040907835318 1 0 0
108 36 1 0.5897 -9.973826167320619 2.816648962986587 3.703513244512976 1 0 0
162 54 1 0.5897 -14.248306012146822 6.839487202347897 2.122256901426301 1 0 0
45 15 1 0.5897 -9.495263987399268 2.2869301573321508 1.3435230685651407 1 0 0
153 51 1 0.5897 -12.624528231422723 9.248471116364497 1.246387715567296 1 0 0
151 51 2 -1.1794 -12.638724003512705 8.927838101959347 0.3445571128456839 1 0 0
214 72 2 -1.1794 -12.294539065208108 9.42785850230218 3.0346523457288543 1 0 0
152 51 1 0.5897 -12.785262732639657 7.985570249215501 0.4271782059229431 1 0 0
207 69 1 0.5897 -14.47850624883 8.680654004676883 5.261222046699776 1 0 0
43 15 2 -1.1794 -9.556253424128734 2.021157381970969 0.4259352197476038 1 0 0
160 54 2 -1.1794 -14.983272150422616 7.215936795163385 2.606225485577822 1 0 0
106 36 2 -1.1794 -9.261626918294214 2.4606089256623225 3.172357846448341 1 0 0
206 69 1 0.5897 -14.597084896314591 7.391641424886833 4.4762217868087655 1 0 0
215 72 1 0.5897 -12.156683667415846 8.547136007078178 3.383242333559784 1 0 0
174 58 1 0.5897 -16.227150230087922 10.109282076995127 1.7146734848463077 1 0 0
173 58 1 0.5897 -14.758216178750196 10.444603517393007 1.5680785267980386 1 0 0
172 58 2 -1.1794 -15.375378135117236 9.713987188260694 1.529362546251121 1 0 0
161 54 1 0.5897 -15.032430796960131 8.121942470149035 2.301399034374598 1 0 0
193 65 2 -1.1794 -13.787031263007417 11.942991257781857 1.7853895475519581 1 0 0
283 95 2 -1.1794 -16.386030281394635 11.893888400640376 4.187367887280297 1 0 0
285 95 1 0.5897 -16.820369745026397 11.629340563611537 3.3763740358554615 1 0 0
148 50 2 -1.1794 -17.895142839618828 10.939517495093371 2.1670466990745396 1 0 0
150 50 1 0.5897 -18.33498690027538 11.481247098952272 1.511794672429748 1 0 0
289 97 2 -1.1794 -14.156418078348171 10.410999468369587 4.786304375223155 1 0 0
291 97 1 0.5897 -14.993980453134617 10.782307394116463 4.509137310414334 1 0 0
284 95 1 0.5897 -17.081094648715286 11.88639175659584 4.845377817801076 1 0 0
216 72 1 0.5897 -12.992412874009396 9.794294540228767 3.5776249710671806 1 0 0
167 56 1 0.5897 -16.307850618412196 6.335146686996151 3.4446299888962293 1 0 0
205 69 2 -1.1794 -14.626451546887083 7.740921500202115 5.366972227280003 1 0 0
192 64 1 0.5897 -11.006872362448593 6.4892058349407815 4.301889412581089 1 0 0
290 97 1 0.5897 -13.848841589981724 11.000132459976745 5.475221225627905 1 0 0
57 19 1 0.5897 -13.225114905960233 5.682401601915959 0.31101746170043687 1 0 0
532 178 2 -1.1794 -10.850134455787789 5.007909343228441 6.959969714178058 1 0 0
521 174 1 0.5897 -10.481891574408266 3.5959304366029485 7.858710825477772 1 0 0
534 178 1 0.5897 -11.73371982838003 5.371449994968982 7.016970128586411 1 0 0
645 215 1 0.5897 -12.224628793442415 7.013703043081653 8.640724395162946 1 0 0
644 215 1 0.5897 -12.47500926804613 7.067656371760547 10.132853128033723 1 0 0
643 215 2 -1.1794 -11.846385775223105 7.33105840032424 9.46082383574883 1 0 0
510 170 1 0.5897 -13.644907812734537 6.832309357761934 6.613703731520663 1 0 0
508 170 2 -1.1794 -13.267048286741975 6.2649811144210545 7.28575139694182 1 0 0
543 181 1 0.5897 -10.400591909197564 6.330937974242241 9.729625801470528 0 0 0
509 170 1 0.5897 -14.022489061269557 5.850213298709535 7.702193903629242 1 0 0
636 212 1 0.5897 -14.944876400470042 7.7126035032451465 9.770469379916797 1 0 0
459 153 1 0.5897 -9.842833629913445 4.249968400755847 10.793958170450512 0 0 0
630 210 1 0.5897 -12.73604093647186 9.180694038068923 7.389548448328155 1 0 0
519 173 1 0.5897 -16.20909904080554 7.315819444620056 6.228636296245066 1 0 0
617 206 1 0.5897 -16.901620028285542 12.909102966613878 7.7651308475201395 1 0 0
567 189 1 0.5897 -12.840784934966404 11.16281542347791 10.58032569392068 0 0 0
628 210 2 -1.1794 -13.401799411007518 9.588965387642107 7.9429068298772485 1 0 0
629 210 1 0.5897 -13.443499521956607 10.495603369514656 7.638850218385917 1 0 0
525 175 1 0.5897 -11.61319588301369 8.055024982025712 5.609354044543798 1 0 0
533 178 1 0.5897 -10.273845374249698 5.771412106796033 6.993762754675441 1 0 0
182 61 1 0.5897 -11.129850671759364 3.8886160770719638 5.603343707931459 1 0 0
565 189 2 -1.1794 -13.017780350338885 10.222278049401995 10.595462333818812 0 0 0
634 212 2 -1.1794 -15.401832193336455 8.219587901995284 9.099312669527082 1 0 0
635 212 1 0.5897 -14.712866124813115 8.729052618197505 8.672782523877249 1 0 0
566 189 1 0.5897 -13.050455360108849 9.969350838059528 9.672814731938884 0 0 0
642 214 1 0.5897 -14.678493513378875 12.490443987517198 6.951239053047242 1 0 0
640 214 2 -1.1794 -13.800490753622238 12.110608383744468 6.98255895199819 1 0 0
518 173 1 0.5897 -16.396860016879273 7.595070630600686 7.704717789418405 1 0 0
458 153 1 0.5897 -10.046614523023685 2.981536074844751 9.99307162564133 0 0 0
641 214 1 0.5897 -13.2114118274116 12.861598121142093 6.910599067280598 1 0 0
327 109 1 0.5897 -13.448299396684433 13.301457646342568 9.708012072936626 0 -1 0
520 174 2 -1.1794 -10.36491116067039 2.7236358870331667 8.235025956387224 1 0 0
646 216 2 -1.1794 -18.234742436092027 12.006474339946633 8.526266778048472 1 0 0
457 153 2 -1.1794 -10.016384610403374 3.313615558445102 10.890355837783517 0 0 0
874 292 2 -1.1794 -13.310471688649926 4.920470349669026 14.94289969880237 0 0 0
887 296 1 0.5897 -10.076889403566659 4.074149928965001 14.140748464057966 0 0 0
876 292 1 0.5897 -12.452337443724364 4.504194744542451 15.023308577772902 0 0 0
945 315 1 0.5897 -13.960571469368613 7.120890162079805 11.976457092490325 1 0 0
848 283 1 0.5897 -13.574867471913105 3.838441986955381 12.079104643969627 1 0 0
900 300 1 0.5897 -14.395572361865016 7.690851097106057 14.347511928168622 0 0 0
899 300 1 0.5897 -13.515316668107236 6.484749276632423 14.098346616088694 0 0 0
898 300 2 -1.1794 -13.741279068733256 7.343622728508846 13.741321886894395 0 0 0
886 296 2 -1.1794 -10.758401524485343 3.731374956712088 14.71885446183014 0 0 0
944 315 1 0.5897 -14.302594748779704 5.908966284262458 11.136119114171935 1 0 0
869 290 1 0.5897 -12.401988703751176 8.30818060099527 12.982007648147313 0 0 0
680 227 1 0.5897 -10.906772262593948 9.491394784416434 15.478142377523628 0 -1 0
683 228 1 0.5897 -16.553675440150364 13.507072441012847 14.099535517118108 0 -1 0
659 220 1 0.5897 -16.814373330980853 11.215623016863786 14.772760478952682 0 -1 0
672 224 1 0.5897 -13.34146549132053 10.097677339775261 15.093933521091534 0 -1 0
870 290 1 0.5897 -11.960502743338829 9.295962768468192 11.923118599155574 0 0 0
728 243 1 0.5897 -17.056166619702648 12.880164059600782 11.07263212441388 1 -1 0
671 224 1 0.5897 -13.075562738799523 11.115865112286803 14.005588913872973 0 -1 0
868 290 2 -1.1794 -11.622643625937545 8.720068703043234 12.60903158598282 0 0 0
670 224 2 -1.1794 -13.784888211367292 10.661614558530081 14.460195185227956 0 -1 0
660 220 1 0.5897 -15.32810633672571 11.502461397449574 14.794667914585625 0 -1 0
956 319 1 0.5897 -16.638251721998483 10.656614704810965 11.94226378763839 1 0 0
877 293 2 -1.1794 -15.164744303864676 9.780137788439136 12.34669609927779 0 0 0
878 293 1 0.5897 -14.697518940974675 10.004846998479197 13.151408144500706 0 0 0
879 293 1 0.5897 -14.518050696625359 9.902031467702221 11.651645871045845 0 0 0
658 220 2 -1.1794 -16.182447162206874 11.930152638859573 14.85221476144811 0 -1 0
943 315 2 -1.1794 -14.011272356916155 6.818303154468461 11.069711745546064 1 0 0
649 217 2 -1.1794 -15.579855901730664 8.199190653044782 15.452694350296582 0 -1 0
650 217 1 0.5897 -15.367358016503285 8.771861047603418 16.189705556956753 0 -1 0
955 319 2 -1.1794 -17.406939652950577 11.085945564745819 11.566742181806191 1 0 0
847 283 2 -1.1794 -14.396493706704355 4.126251731912861 11.681193238876961 1 0 0
875 292 1 0.5897 -13.926622274850711 4.190469893898644 14.88247422571142 0 0 0
681 227 1 0.5897 -10.7002248108118 9.408628752871286 13.980628812939859 0 -1 0
1018 340 2 -1.1794 -11.564829828664895 7.392699394548648 20.26736851090474 0 -1 0
1019 340 1 0.5897 -12.1842706802633 6.677464545572841 20.122683197297228 0 -1 0
1020 340 1 0.5897 -10.70336426256326 6.989113169809125 20.161917377840176 0 -1 0
1030 344 2 -1.1794 -9.151744111240758 6.086446340672692 19.79744178694302 0 -1 0
1043 348 1 0.5897 -11.8772892654384 8.906750691971437 19.380831776796065 0 -1 0
1032 344 1 0.5897 -8.682833339316595 5.711126898742675 20.54281528197682 0 -1 0
1239 413 1 0.5897 -9.88389252703421 5.219765071601204 17.002945260344198 0 0 0
1237 413 2 -1.1794 -10.558161352817379 5.209345875504605 17.68221511966845 0 0 0
1003 335 2 -1.1794 -13.301617671366735 5.147135720843048 20.195213275902404 0 -1 0
1208 403 1 0.5897 -11.99125489824488 6.197735958554995 17.366271007577573 0 0 0
1207 403 2 -1.1794 -12.852201191865282 6.547059229399952 17.13620279904235 0 0 0
1238 413 1 0.5897 -10.099905402407808 5.475413640389592 18.479436473483318 0 0 0
990 330 1 0.5897 -14.128386596200595 7.080956637497936 18.254391436018672 0 -1 0
989 330 1 0.5897 -14.9949287826398 8.319755001922795 18.332647011012114 0 -1 0
988 330 2 -1.1794 -14.911583490647732 7.431217478619812 18.678687548257642 0 -1 0
1034 345 1 0.5897 -14.54241123604376 7.693018794402997 20.49906885131918 0 -1 0
1035 345 1 0.5897 -14.281404502408563 8.92100032449367 21.345134001684315 0 -1 0
1033 345 2 -1.1794 -14.42297354123629 7.976294794570213 21.405610095662638 0 -1 0
979 327 2 -1.1794 -12.417357323023625 9.173384921998531 16.38119502044905 0 -1 0
992 331 1 0.5897 -14.977013559550116 13.182997012014026 17.35779771150768 0 -1 0
1001 334 1 0.5897 -14.704894028659666 10.688293434694915 17.612265666008412 0 -1 0
1118 373 1 0.5897 -13.801147822764696 11.267226593462892 21.507924432237196 0 -1 0
1000 334 2 -1.1794 -15.271259805602366 9.917952509867225 17.65681155879752 0 -1 0
1002 334 1 0.5897 -16.160163880840717 10.272803777735346 17.648234637277014 0 -1 0
991 331 2 -1.1794 -15.796527324686338 13.559887639181389 17.03754102583946 0 -1 0
1098 366 1 0.5897 -17.12643609644421 14.255153566342072 18.26247187509159 0 -1 0
1111 371 2 -1.1794 -16.297844790145373 12.079853397778868 20.058441604916425 0 -1 0
1023 341 1 0.5897 -12.868248931889692 12.284310433029853 17.05485357230816 0 -1 0
981 327 1 0.5897 -12.376693258154326 9.537375648697695 17.26559249225943 0 -1 0
1140 380 1 0.5897 -11.936992997007271 12.637720731118774 20.585114829176653 0 -1 0
1138 380 2 -1.1794 -12.362905310231223 13.201323146265297 19.939178860606894 0 -1 0
1128 376 1 0.5897 -13.868919895304508 13.959147591325019 20.290635991304782 0 -1 0
1022 341 1 0.5897 -13.238274882259239 12.465657160912192 18.51162572699414 0 -1 0
1127 376 1 0.5897 -15.344106049930595 13.648106364906807 20.15332648627757 0 -1 0
1126 376 2 -1.1794 -14.734745759806 14.36554556311953 20.32699980783815 0 -1 0
1119 373 1 0.5897 -14.847836176072857 11.004659723318111 20.44600997167526 0 -1 0
1117 373 2 -1.1794 -14.045113004959138 10.644532937857596 20.823078373066217 0 -1 0
1044 348 1 0.5897 -12.676908804744858 10.161179531601777 19.66126334005653 0 -1 0
1042 348 2 -1.1794 -12.07672530655285 9.772623916812025 19.024911298906716 0 -1 0
1021 341 2 -1.1794 -13.57742686607088 12.134489832672879 17.679971313813603 0 -1 0
980 327 1 0.5897 -12.545197999690151 8.234128466093376 16.513939643921077 0 -1 0
1013 338 1 0.5897 -10.815114614924214 10.78495525022114 18.41894150398695 0 -1 0
993 331 1 0.5897 -16.091048320787092 12.952519505820478 16.358828764851403 0 -1 0
1011 337 1 0.5897 -11.8832093888195 4.22849862441309 20.58856017181447 0 -1 0
1005 335 1 0.5897 -13.726900032149352 4.871792200242039 19.38300973187704 0 -1 0
1010 337 1 0.5897 -10.654019218560364 4.307723302130013 21.468841508243194 0 -1 0
1209 403 1 0.5897 -13.166819440956012 5.9707468458487565 16.439664538903692 0 0 0
302 101 1 0.5897 -7.411161834391185 -1.750503444117009 2.5238979706577482 1 1 0
305 102 1 0.5897 -1.45227495741646 -6.091208191097894 2.419107755827988 1 1 0
293 98 1 0.5897 -4.970505819961562 -3.7660659352051535 2.3302204811165947 1 1 0
304 102 2 -1.1794 -1.352772808764426 -6.967277392682249 2.7916598596476394 1 1 0
241 81 2 -1.1794 -0.9397724801294842 -6.33984753817606 5.432706089496872 0 1 0
25 9 2 -1.1794 -4.192374922949919 0.521100825299257 5.353104237093551 0 0 0
27 9 1 0.5897 -3.9792824130514504 1.4541753024077995 5.341490483680697 0 0 0
310 104 2 -1.1794 -3.399777145941325 -8.30360878696082 3.9377975762587765 1 1 0
3 1 1 0.5897 -1.342687414298755 -3.4181737205546145 4.386182727065812 0 0 0
242 81 1 0.5897 -1.0462659100780876 -6.66613598549026 4.5391079570249335 0 1 0
311 104 1 0.5897 -2.68390202347282 -7.8969376435688865 3.4496419846547144 1 1 0
316 106 2 -1.1794 -1.7637452992442633 -4.523850813065672 1.6748412204387977 1 1 0
306 102 1 0.5897 -0.6309624179771642 -7.357129668463618 2.2985887324982333 1 1 0
318 106 1 0.5897 -2.578815475168703 -4.023031392476101 1.7059005925243051 1 1 0
105 35 1 0.5897 -3.332882708137447 -2.6393056238219375 3.388597545182385 1 0 0
243 81 1 0.5897 -0.7617784040640352 -5.4053029999261835 5.3272964880683515 0 1 0
103 35 2 -1.1794 -2.827603630188868 -2.344236113751557 4.146206887941281 1 0 0
95 32 1 0.5897 -5.689357220538588 -0.7540566357582232 3.5238660879368084 1 0 0
90 30 1 0.5897 -3.5429200410664334 -0.32867919869971374 2.171376016836936 1 0 0
292 98 2 -1.1794 -4.233258252263992 -3.2646240374120223 1.9821142425215994 1 1 0
88 30 2 -1.1794 -4.27803554436079 0.010673495851422743 2.6818298121086652 1 0 0
94 32 2 -1.1794 -6.434926516487648 -1.196819957014645 3.929122525660936 1 0 0
96 32 1 0.5897 -6.041042672463337 -1.8214469958336368 4.5381929173286535 1 0 0
26 9 1 0.5897 -4.1593459761070815 0.255931035702579 4.433920385142948 0 0 0
89 30 1 0.5897 -4.426822862104774 0.8895863863709206 2.3331677782544604 1 0 0
104 35 1 0.5897 -3.430232668997615 -2.4301332164071123 4.884878285409909 1 0 0
303 101 1 0.5897 -7.087363586710087 -2.025393165532976 1.0707681973338528 1 1 0
294 98 1 0.5897 -4.621211386960375 -2.7006105269616185 1.3130336027006932 1 1 0
317 106 1 0.5897 -1.0738800679150007 -3.860394167810509 1.6847463001186966 1 1 0
201 67 1 0.5897 0.38308191595519325 -8.491604625660829 0.3773357951056928 1 1 0
1262 421 1 0.5897 -1.987710375698315 -5.593219838687343 0.263184734950221 0 0 1
442 148 2 -1.1794 -7.248003829468962 2.3308460256169834 9.695081025230975 0 0 0
443 148 1 0.5897 -7.941056982223803 1.6807347757580953 9.58008217703442 0 0 0
404 135 1 0.5897 -5.131223425793034 -3.7602620900892614 5.8245560585398435 1 0 0
632 211 1 0.5897 -4.663171931411534 -5.872527395269049 6.819448803101332 1 1 0
356 119 1 0.5897 1.2005128649047379 -6.98386907592176 9.995999837548956 0 0 0
359 120 1 0.5897 -4.692417013595532 -3.0437686424315196 8.880636018339557 0 0 0
555 185 1 0.5897 -2.5321528628228673 -6.7436534211569725 6.273311227414783 0 1 0
554 185 1 0.5897 -2.636871039334773 -6.6729306343648025 7.781997179177907 0 1 0
544 182 2 -1.1794 0.41197528996800337 -7.960485839353546 7.190011841049228 0 1 0