LAMMPS data file via write_data, version 30 Jul 2021, timestep = 41250000

864 atoms
2 atom types
576 bonds
1 bond types
288 angles
1 angle types

0.18131488782774063 18.026257512156725 xlo xhi
0.07865654645450881 23.55052125356265 ylo yhi
0.2006544043816394 22.01254139561324 zlo zhi

Masses

1 1.00794
2 15.9994

Atoms # full

707 1 1 0.5897 3.005638608456922 1.7969961780788424 3.8670848493722616 0 0 0
706 1 2 -1.1794 3.0299600132324866 1.6967722092245632 2.9154781037311235 0 0 0
30 1 1 0.5897 5.288813567604237 3.9400489536360137 2.44884722622681 0 0 0
708 1 1 0.5897 2.24290768071003 2.145509701500459 2.6067097122170813 0 0 0
29 1 1 0.5897 4.522651786557938 2.638567697484283 2.345238138390961 0 0 0
28 1 2 -1.1794 5.351730493532121 3.050283929292551 2.1017716657887213 0 0 0
3 1 1 0.5897 0.6749144399873237 4.02019395120138 2.3359899037758547 0 0 0
595 1 2 -1.1794 0.6227599600524478 5.621137503468502 2.8926730092886914 0 0 0
495 1 1 0.5897 8.393029184811434 2.2408440710482687 2.8138041854067555 0 0 0
494 1 1 0.5897 6.8806975001238335 2.2658268147537095 2.7508719615279644 0 0 0
493 1 2 -1.1794 7.613104521375496 1.8279384111163028 3.1844513864750934 0 0 0
1 1 2 -1.1794 0.7013560099937141 3.0950480725237064 2.0920623715886872 0 0 0
846 1 1 0.5897 7.498280055307802 1.818153990007305 5.050963354720685 0 0 0
137 1 1 0.5897 5.349025734331367 5.726404410420916 3.9842803762313532 0 0 0
20 1 1 0.5897 0.8096568804698604 3.052168696133114 0.33620435253371533 0 0 0
136 1 2 -1.1794 5.319789230272005 5.619065128121716 3.033587565498529 0 0 0
597 1 1 0.5897 0.5963645068580911 5.571913023879381 3.8482189873131674 0 0 0
668 1 1 0.5897 5.463973304659696 3.139675707490628 0.3542146270014872 0 0 0
487 1 2 -1.1794 3.0649303570026327 1.8573379706864728 5.5910520715351435 0 0 0
83 1 1 0.5897 4.472321161499092 2.7218788787963026 6.2674385545074065 0 0 0
183 1 1 0.5897 0.7277781094637714 4.677529305079512 6.075189404982907 0 0 0
82 1 2 -1.1794 5.205614469818086 3.1649882456802527 6.694155988398808 0 0 0
785 1 1 0.5897 0.8779797766676452 2.9559609016955153 7.642989666338838 0 0 0
674 1 1 0.5897 3.7316208140351033 2.331267741520595 10.114105420580401 0 0 0
356 1 1 0.5897 7.431973596617721 1.0751631634991803 9.918661152531307 0 0 0
181 1 2 -1.1794 0.7384442434783719 5.561743445908779 5.708912453565424 0 0 0
845 1 1 0.5897 7.551983135423471 0.8907296555534971 6.246242454344596 0 0 0
112 1 2 -1.1794 0.8408967549455166 5.617146939587253 10.336763211584357 0 0 0
673 1 2 -1.1794 2.9593725163799998 1.9081993610346306 10.489336359613112 0 0 0
34 1 2 -1.1794 0.747673848782 3.0675482368759597 9.40778568185029 0 0 0
274 1 2 -1.1794 5.116057954224995 3.1260885112053614 9.38266103228499 0 0 0
678 1 1 0.5897 5.080495684338917 4.759580856735608 10.055066797795442 0 0 0
35 1 1 0.5897 0.7797827647001183 3.94953738447996 9.778147260905785 0 0 0
36 1 1 0.5897 1.5071263373584993 2.621935429533343 9.783035353286719 0 0 0
355 1 2 -1.1794 7.4714418571987276 1.9963911722583496 10.175326129147058 0 0 0
676 1 2 -1.1794 5.062678001572977 5.628268446732398 10.45652516271721 0 0 0
84 1 1 0.5897 5.9750308280523345 2.656254083327787 6.438546600853553 0 0 0
276 1 1 0.5897 5.944617610979237 2.6922050167463323 9.58608696931421 0 0 0
675 1 1 0.5897 2.9697682530037195 1.0231986774185453 10.124957375986364 0 0 0
275 1 1 0.5897 5.0956728935138145 3.1683389168949967 8.426634959226357 0 0 0
686 1 1 0.5897 5.352971264682643 4.91456271309619 6.1871062127545855 0 0 0
784 1 2 -1.1794 0.859504160872221 2.8874202159512063 6.688448830435296 0 0 0
489 1 1 0.5897 3.06704791905846 0.9626840653289244 5.931186163416151 0 0 0
488 1 1 0.5897 2.2549396330006504 2.240204374149702 5.927923024472272 0 0 0
419 1 1 0.5897 9.012511558921862 2.6638145369374815 6.5003801592747505 0 0 0
685 1 2 -1.1794 5.273130239419642 5.791887224417757 5.812898061957042 0 0 0
844 1 2 -1.1794 7.456952296701222 1.8126504274541666 6.007231816733307 0 0 0
176 1 1 0.5897 8.978794109989172 2.8223126946789066 9.70269741814616 0 0 0
166 1 2 -1.1794 3.1026419379729124 1.870620901021331 13.245272713895199 0 0 0
167 1 1 0.5897 3.093765737625358 1.8520836608238638 12.288316705202798 0 0 0
457 1 2 -1.1794 5.371302856383629 3.1325976560681728 14.050196394472593 0 0 0
458 1 1 0.5897 6.115318988084847 2.6872304226357095 13.644930335138922 0 0 0
459 1 1 0.5897 4.606606236788113 2.6362654495625644 13.75857914011192 0 0 0
762 1 1 0.5897 5.264972131235818 4.827445341583157 13.472606603136349 0 0 0
594 1 1 0.5897 8.217371103915543 2.2660975831879386 13.279035787508635 0 0 0
168 1 1 0.5897 2.2794030102987155 2.2961883222249684 13.484701195636715 0 0 0
468 1 1 0.5897 0.7693663873155175 3.201010142211675 14.918538868099457 0 0 0
466 1 2 -1.1794 0.7702239710543701 3.2798224743092725 13.96461225545607 0 0 0
593 1 1 0.5897 7.566507600689215 0.9010477043590989 13.211337502772109 0 0 0
592 1 2 -1.1794 7.470974582407762 1.8013517174736375 12.900814393222095 0 0 0
365 1 1 0.5897 0.673926574322687 5.0016845262654686 13.339084832496715 0 0 0
71 1 1 0.5897 5.23702788189897 3.114678070652698 15.849366250764234 0 0 0
357 1 1 0.5897 7.530625002421385 1.977087672457846 11.13047571441157 0 0 0
760 1 2 -1.1794 5.177601893345315 5.724070302129603 13.149297101335446 0 0 0
113 1 1 0.5897 0.7932556994174734 5.64386503329113 11.292380228581168 0 0 0
761 1 1 0.5897 5.092329349911794 5.629869831920543 12.200592705662356 0 0 0
364 1 2 -1.1794 0.6160953401524107 5.89942584454212 13.0122503838099 0 0 0
754 1 2 -1.1794 7.5431694525771675 1.749768539837104 17.556649928522155 0 0 0
21 1 1 0.5897 0.8765194283069061 4.023621610267196 20.98899583188964 0 0 0
70 1 2 -1.1794 5.261410512084554 3.1387371916001205 16.805932160105897 0 0 0
755 1 1 0.5897 7.621090367336292 1.7848403291707924 18.510012150954246 0 0 0
290 1 1 0.5897 2.9358441533512334 0.9384678944546758 17.46935647903998 0 0 0
42 1 1 0.5897 7.762025891963817 1.0716818921361622 20.663204891728277 0 0 0
289 1 2 -1.1794 3.0035158800346773 1.848204605485353 17.75901286305578 0 0 0
41 1 1 0.5897 6.928832709981576 2.333350524000423 20.588506844521504 0 0 0
143 1 1 0.5897 5.411594206446749 4.9078553915167475 20.64223930467361 0 0 0
569 1 1 0.5897 2.419860175455179 2.2467060022627052 20.762577799210433 0 0 0
291 1 1 0.5897 2.2152198339132187 2.268649677012908 17.415551267897612 0 0 0
570 1 1 0.5897 3.1706253042237886 1.8047563148305856 19.524519284727887 0 0 0
40 1 2 -1.1794 7.771672992757305 1.9660104726245786 20.32234856189328 0 0 0
571 1 2 -1.1794 0.6741161957409031 5.579983219958487 17.699042488310603 0 0 0
667 1 2 -1.1794 5.438796192634608 3.2099095834408304 21.211837931324503 0 0 0
134 1 1 0.5897 0.7304255041352924 3.962304162782839 16.9974287781342 0 0 0
568 1 2 -1.1794 3.229486242513569 1.8216650603725528 20.479737236392694 0 0 0
756 1 1 0.5897 6.725855517600386 2.209810471593708 17.365585102737768 0 0 0
669 1 1 0.5897 4.6562347825738115 2.721841675264315 20.95584569357522 0 0 0
278 1 1 0.5897 5.271143092038982 4.849096808315707 17.298742049063407 0 0 0
19 1 2 -1.1794 0.8963530279102052 3.0892594114313754 21.1955689144593 0 0 0
648 1 1 0.5897 0.8118540243805372 5.756810814465232 19.49815924949764 0 0 0
72 1 1 0.5897 4.480139027838824 2.6573909699328064 17.07809330098174 0 0 0
142 1 2 -1.1794 5.318840519693956 5.810790017865135 20.338575758011523 0 0 0
144 1 1 0.5897 5.34094629947391 5.746381295187192 19.383822939277053 0 0 0
646 1 2 -1.1794 0.7522502033793489 5.8063012909388245 20.45219514503019 0 0 0
277 1 2 -1.1794 5.286230890184235 5.767519660375206 17.56775408522566 0 0 0
133 1 2 -1.1794 0.8110118619669184 3.069949513662123 16.660808326902902 0 0 0
599 1 1 0.5897 9.01191501720833 2.732177646453323 16.983236577272407 0 0 0
81 1 1 0.5897 3.1612843375900246 0.0858363485683924 20.931097957261443 0 1 0
253 1 2 -1.1794 3.031168612709778 6.909960813616426 2.2737711683730915 0 0 0
123 1 1 0.5897 3.016392185899446 8.638234480287101 2.843828098172839 0 0 0
121 1 2 -1.1794 2.9342466838394032 9.5340098577657 3.1708446649346698 0 0 0
122 1 1 0.5897 2.9355044429148682 9.4427253499294 4.123660745698807 0 0 0
44 1 1 0.5897 1.4324915514979115 10.35722923141668 2.4780857945954535 0 0 0
218 1 1 0.5897 5.7883558272984175 10.460346450802401 2.4257102710852028 0 0 0
255 1 1 0.5897 2.2314074029418265 6.4412754431679495 2.512246894550955 0 0 0
219 1 1 0.5897 4.275342974719101 10.50806369398674 2.441117400501629 0 0 0
43 1 2 -1.1794 0.6860806559603063 10.843504120717261 2.1280066658750756 0 0 0
415 1 2 -1.1794 7.5088277303811966 7.023685184709594 2.132309244742004 0 0 0
417 1 1 0.5897 8.272208649166599 6.541789462904129 2.4503873835234935 0 0 0
254 1 1 0.5897 3.0101749670941267 6.949389864785068 1.3176329024910869 0 0 0
217 1 2 -1.1794 5.043965147360549 10.972687063450708 2.1102209347182725 0 0 0
66 1 1 0.5897 7.4423280274946855 9.674349781491836 3.8243265395659347 0 0 0
65 1 1 0.5897 7.49154209441309 8.778987363200182 2.6046552302828245 0 0 0
64 1 2 -1.1794 7.386162454960351 9.69283961113829 2.8689784239733274 0 0 0
416 1 1 0.5897 6.75848175963231 6.523000832800019 2.452376337252119 0 0 0
162 1 1 0.5897 7.555444397295995 7.248648587132324 0.2641540136122666 0 0 1
773 1 1 0.5897 8.898311292297272 10.552503724020491 2.3437620131040697 0 0 0
396 1 1 0.5897 0.6435284518411202 10.977514446302495 0.37826709653512774 0 0 0
138 1 1 0.5897 4.532193454528822 6.090845850994064 2.7629170863995287 0 0 0
45 1 1 0.5897 0.8179635361134703 11.740038739268565 2.4361168147639383 0 0 0
712 1 2 -1.1794 7.456567696624635 9.676499058154002 5.640270795310207 0 0 0
363 1 1 0.5897 5.104761527307103 10.8768046444321 0.31930900634758075 0 0 1
256 1 2 -1.1794 3.012275620878367 9.887033236756752 10.26405871098247 0 0 0
12 1 1 0.5897 2.924134255888721 7.709434679305654 6.425536606730162 0 0 0
10 1 2 -1.1794 2.9702231549165385 6.826582067738668 6.792349191302738 0 0 0
794 1 1 0.5897 2.279524972415184 9.892868819992099 6.158226805972857 0 0 0
526 1 2 -1.1794 7.354734244300539 6.879243445053528 9.49905858134756 0 0 0
577 1 2 -1.1794 5.193925649613 10.935497767330615 6.698409880008567 0 0 0
145 1 2 -1.1794 7.395735917178556 7.2359965348214015 6.759050059502505 0 0 0
551 1 1 0.5897 0.7864470314989321 10.913716616178098 7.532043821302965 0 0 0
713 1 1 0.5897 8.295267553227303 10.006901252946774 5.962097637104571 0 0 0
580 1 2 -1.1794 5.335523509151491 10.975105885157156 9.465221822049683 0 0 0
650 1 1 0.5897 2.8997116193178916 6.984266710021072 8.587705676064822 0 0 0
822 1 1 0.5897 8.321079130408556 9.97302441140904 9.867168951596124 0 0 0
527 1 1 0.5897 7.416798470502885 7.78824800093782 9.792241966921214 0 0 0
15 1 1 0.5897 1.5178550908210302 10.627572915927578 9.636214244219081 0 0 0
582 1 1 0.5897 5.303797615151828 10.940387049238675 8.509196580857108 0 0 0
820 1 2 -1.1794 7.553901155407539 9.55585177235711 10.259032241898103 0 0 0
581 1 1 0.5897 6.094082627320372 10.440563275405552 9.699728585702644 0 0 0
147 1 1 0.5897 7.33143332644277 7.097314715409771 7.7039420334792235 0 0 0
649 1 2 -1.1794 2.924783848436483 7.182570334039759 9.523780669747737 0 0 0
528 1 1 0.5897 8.190621800728557 6.487786584239641 9.752448251089556 0 0 0
13 1 2 -1.1794 0.6800927573318274 11.001654394177903 9.363503082499502 0 0 0
258 1 1 0.5897 3.852475044468123 10.223223073868883 9.952294917295962 0 0 0
714 1 1 0.5897 7.3737944522925005 8.808016010692556 6.033958600355412 0 0 0
257 1 1 0.5897 3.0089328849608927 8.967123278349838 9.999754109199369 0 0 0
146 1 1 0.5897 6.642982894186077 6.769242321294232 6.396207084684996 0 0 0
578 1 1 0.5897 5.977996258161617 10.546051399264167 6.311472140542363 0 0 0
550 1 2 -1.1794 0.8379730898962097 10.8298034348444 6.579944370500735 0 0 0
552 1 1 0.5897 0.975218266540166 11.723960004350943 6.267293530601939 0 0 0
651 1 1 0.5897 3.6712065805646334 6.68325841037551 9.854968316808849 0 0 0
11 1 1 0.5897 2.193017507694724 6.384142413480169 6.451243627782236 0 0 0
795 1 1 0.5897 3.791937939980595 9.8987286667907 6.223775493881022 0 0 0
793 1 2 -1.1794 3.051249391804258 9.401356225075153 5.877152538399278 0 0 0
687 1 1 0.5897 4.48402076632573 6.153790222342765 6.215997981080061 0 0 0
114 1 1 0.5897 1.585320801963692 6.177541094160536 10.11783261191549 0 0 0
165 1 1 0.5897 8.76731867003732 6.293421627850761 6.217314161983307 0 0 0
677 1 1 0.5897 5.84939807860836 6.061646073699151 10.12576009711519 0 0 0
826 1 2 -1.1794 7.49329341700572 7.050078474405452 13.724348491738988 0 0 0
827 1 1 0.5897 6.7057678823064615 6.572728356924564 13.463388963769015 0 0 0
332 1 1 0.5897 2.998039523338566 7.970413621031991 13.619740681668594 0 0 0
797 1 1 0.5897 3.1031219412066853 9.715082731935027 12.017617515602643 0 0 0
796 1 2 -1.1794 3.184658685619047 9.617253517902709 12.966284619564938 0 0 0
798 1 1 0.5897 2.4289277295359377 10.08497383839273 13.3216162540816 0 0 0
722 1 1 0.5897 4.741339035278572 10.428505697181109 13.404442583414458 0 0 0
261 1 1 0.5897 1.0066617490635437 10.870983345319454 14.93030806868193 0 0 0
723 1 1 0.5897 5.442483954109708 10.803126001533304 14.692780211872245 0 0 0
828 1 1 0.5897 7.4721541799249795 7.043044533894463 14.681266850183608 0 0 0
259 1 2 -1.1794 0.9918858815513267 10.983180755795857 13.97984441330942 0 0 0
331 1 2 -1.1794 2.8947834593381265 7.096054037731845 13.995157935487502 0 0 0
225 1 1 0.5897 2.939150766976897 7.017466493155154 15.791787285656433 0 0 0
721 1 2 -1.1794 5.502388811669551 10.900420841660909 13.742446754705732 0 0 0
475 1 2 -1.1794 7.902691655725328 9.726458155928091 12.983232059634679 0 0 0
476 1 1 0.5897 7.066304741345291 10.133485826533393 13.208924269884223 0 0 0
477 1 1 0.5897 7.832853465765733 8.832734805357163 13.31861553167224 0 0 0
333 1 1 0.5897 3.673090008297309 6.618372332261406 13.708442340946315 0 0 0
366 1 1 0.5897 1.3967094614086042 6.331643223540497 13.358632880420435 0 0 0
821 1 1 0.5897 7.68340262667613 9.653195076264327 11.202398585056997 0 0 0
851 1 1 0.5897 8.963286359620602 6.097329765270356 13.23166284973148 0 0 0
260 1 1 0.5897 0.21032833741550405 10.510027773983365 13.694461716974754 0 0 0
679 1 2 -1.1794 5.280346093806183 10.74791721546705 16.44028779266676 0 0 0
520 1 2 -1.1794 7.480883987080451 6.984738127006248 16.49034686302197 0 0 0
447 1 1 0.5897 0.23945823810868627 10.432811855092323 17.034635282364917 1 0 0
141 1 1 0.5897 7.54552141869723 8.937138161604556 20.421829738548084 0 0 0
361 1 2 -1.1794 5.169317851927138 10.853928802709138 21.17647346525986 0 0 0
9 1 1 0.5897 6.717491549029345 9.97868539173977 17.12729562593973 0 0 0
4 1 2 -1.1794 3.0722862738046905 6.915583855537543 21.362187939460306 0 0 0
627 1 1 0.5897 2.416931216466739 10.007060654626383 17.47916046257128 0 0 0
394 1 2 -1.1794 0.7803281212950334 11.091536930662002 21.24969133945725 0 0 0
223 1 2 -1.1794 2.9225253790055077 6.923005395371229 16.74414559024759 0 0 0
140 1 1 0.5897 6.761881256676332 10.229899037082872 20.500977419606613 0 0 0
161 1 1 0.5897 6.676601178520118 6.84143913461776 20.912608669109858 0 0 0
690 1 1 0.5897 2.1618469019443833 10.049530687357306 20.805573828317762 0 0 0
625 1 2 -1.1794 3.1933249887486688 9.516895544287438 17.749522135941874 0 0 0
688 1 2 -1.1794 2.9044676312109754 9.552000893931528 20.463332845305978 0 0 0
446 1 1 0.5897 0.9813139910958477 11.752370168636896 17.036478286415438 0 0 0
224 1 1 0.5897 2.979182227861609 7.8192581837689055 17.07523609040966 0 0 0
689 1 1 0.5897 3.6719556201825005 10.071926322406075 20.701637623734612 0 0 0
362 1 1 0.5897 5.157060433058402 11.773997637920049 20.912998894096788 0 0 0
626 1 1 0.5897 3.1411898408760144 9.492690133313705 18.704970771360458 0 0 0
139 1 2 -1.1794 7.5420251067715665 9.840648879767025 20.105988300274163 0 0 0
6 1 1 0.5897 3.066223966878975 7.805376182732344 21.009576836718118 0 0 0
521 1 1 0.5897 6.6584938972041785 6.638753829005999 16.83694027748067 0 0 0
8 1 1 0.5897 7.465934042383348 9.704315607980902 18.414274225111434 0 0 0
7 1 2 -1.1794 7.533295188224109 9.608481816258344 17.46429303566773 0 0 0
160 1 2 -1.1794 7.491852619280023 7.297063155837443 21.12220338141858 0 0 0
5 1 1 0.5897 3.8671405878237906 6.520819763919615 21.003689074368147 0 0 0
522 1 1 0.5897 7.550466517558899 7.861468288298229 16.86798238900726 0 0 0
681 1 1 0.5897 5.274532755404576 11.652769736931454 16.752228124668868 0 0 0
680 1 1 0.5897 4.570984225416354 10.32327019794156 16.922616790798422 0 0 0
445 1 2 -1.1794 1.0456040925950219 10.848360368639154 16.72869019970163 0 0 0
462 1 1 0.5897 8.917785466377202 6.348464772925232 20.69371818186748 0 0 0
279 1 1 0.5897 4.493856134753392 6.143018800701565 17.183959472564254 0 0 0
572 1 1 0.5897 1.4430788178500333 6.040404806347944 17.363079429574334 0 0 0
287 1 1 0.5897 8.953809045860467 10.631543653611377 20.8493176604521 0 0 0
647 1 1 0.5897 1.580094384346757 6.202372336256084 20.724139446793863 0 0 0
246 1 1 0.5897 9.016603876066842 10.52355319480255 16.926712256516055 0 0 0
711 1 1 0.5897 8.87887146831758 6.0831965771652285 17.311749741450228 0 0 0
200 1 1 0.5897 5.249109399680406 13.534355130057046 4.970630666031142 0 0 0
173 1 1 0.5897 4.520415807123436 14.007852266859752 2.8269914957849545 0 0 0
172 1 2 -1.1794 5.285730258686908 13.561382513967407 3.1890968284350985 0 0 0
374 1 1 0.5897 0.961504174343245 13.445959255823645 3.9535538008724256 0 0 0
558 1 1 0.5897 3.2431094403948046 14.840059723139566 1.3156485866370569 0 0 0
556 1 2 -1.1794 3.1675400806102036 14.87854129237834 2.269062389892537 0 0 0
557 1 1 0.5897 2.4042264422860113 14.337628962543766 2.4713216022466225 0 0 0
478 1 2 -1.1794 7.369557149019831 14.917370102583385 2.0509400814672163 0 0 0
174 1 1 0.5897 5.233377948160019 12.672505174898586 2.838016483777029 0 0 0
293 1 1 0.5897 3.0787488726961767 16.629966310493778 2.777353859655901 0 0 0
479 1 1 0.5897 8.113941359732321 14.44919671877091 2.428919741277774 0 0 0
449 1 1 0.5897 7.566814419348761 16.608202161849164 2.6481837222895654 0 0 0
480 1 1 0.5897 6.60118834520693 14.445200671825084 2.37158703238791 0 0 0
373 1 2 -1.1794 1.0031968259397284 13.40082849632466 2.998349251508432 0 0 0
448 1 2 -1.1794 7.575075258051366 17.491244220955572 3.0173360966893106 0 0 0
308 1 1 0.5897 7.518267436203751 17.43083140298149 4.8683301849555365 0 0 0
292 1 2 -1.1794 3.081093844439932 17.558688294170537 3.0088036640901596 0 0 0
294 1 1 0.5897 3.1206620611720517 17.567595626173627 3.965121402046275 0 0 0
317 1 1 0.5897 7.2941825644760545 14.841091007019719 0.28210661869898546 0 0 0
375 1 1 0.5897 0.23937655343273434 13.895210304246797 2.701171041530103 0 0 0
384 1 1 0.5897 2.9424648647524636 16.716457093519303 10.183658373135003 0 0 0
656 1 1 0.5897 1.7452858617078932 14.060293258743927 6.067961108034866 0 0 0
454 1 2 -1.1794 5.339919362087992 13.623408525851811 10.281727207364177 0 0 0
199 1 2 -1.1794 5.165451851584914 13.57004284566852 5.923476992082117 0 0 0
811 1 2 -1.1794 3.1165447666876562 15.06835076950672 9.45565195033534 0 0 0
456 1 1 0.5897 5.337866260232246 12.711458221748927 9.991144229768219 0 0 0
813 1 1 0.5897 2.373448076861851 14.569451723843619 9.794851601800033 0 0 0
17 1 1 0.5897 3.010118782167624 15.13010686895358 7.643752131575501 0 0 0
766 1 2 -1.1794 0.9914209487455785 13.577742246523929 10.367845413435006 0 0 0
239 1 1 0.5897 3.047096043184999 16.74549734009603 6.021637004488518 0 0 0
377 1 1 0.5897 6.836531079768965 14.454617499107774 9.672010168772072 0 0 0
382 1 2 -1.1794 2.876143839686529 17.607407462507126 10.527037912566817 0 0 0
519 1 1 0.5897 8.323441136684734 14.400067088482501 6.355889691729225 0 0 0
812 1 1 0.5897 3.875777808102412 14.508753718345412 9.618624810945677 0 0 0
18 1 1 0.5897 3.801594692896952 14.574741976240336 6.478903856618335 0 0 0
376 1 2 -1.1794 7.669956850177861 14.82212994250587 9.377919245184627 0 0 0
16 1 2 -1.1794 3.025962781622568 15.09540916577694 6.687335233831798 0 0 0
517 1 2 -1.1794 7.499859706056526 14.78975108480786 6.64924648926381 0 0 0
186 1 1 0.5897 7.581621144251716 16.463329927641894 10.116509754574174 0 0 0
378 1 1 0.5897 7.57248045641685 14.909444423963794 8.429731561754668 0 0 0
518 1 1 0.5897 7.522265382762491 15.683582802397792 6.307663897831412 0 0 0
201 1 1 0.5897 5.987847255421967 13.958077194738664 6.22221932052634 0 0 0
59 1 1 0.5897 9.035823395164433 13.930713109116397 9.994741361805046 0 0 0
307 1 2 -1.1794 7.498922377769638 17.318819308565665 5.818734589285796 0 0 0
238 1 2 -1.1794 3.098088440151085 17.6504170058601 5.714029809994739 0 0 0
14 1 1 0.5897 0.713964698097532 11.910000320376822 9.663266926949282 0 0 0
184 1 2 -1.1794 7.401650040913913 17.361211855260528 10.394929637540994 0 0 0
655 1 2 -1.1794 1.0268367680659072 13.522917292622806 5.7344928992892665 0 0 0
657 1 1 0.5897 0.2384435966506615 13.919630131494568 6.104910300580513 1 0 0
768 1 1 0.5897 0.21230421286668388 14.027088759214015 10.040403140466642 0 0 0
579 1 1 0.5897 5.174164134600253 11.82811234370107 6.353516647577935 0 0 0
296 1 1 0.5897 7.339244490321981 14.862925817155794 14.944364386665159 0 0 0
232 1 2 -1.1794 2.9904292535564134 14.859469024675846 13.913112033675475 0 0 0
234 1 1 0.5897 3.057483991477283 14.850145144054938 14.867891107983537 0 0 0
606 1 1 0.5897 3.089080150082407 16.64514251883555 13.472511141599348 0 0 0
427 1 2 -1.1794 5.177486842594826 13.498887819100483 13.011281906825284 0 0 0
233 1 1 0.5897 3.751429145965613 14.361778853103958 13.614218679828209 0 0 0
639 1 1 0.5897 1.471866257138657 14.074881393194694 13.397029278662504 0 0 0
429 1 1 0.5897 5.958512648847877 13.984047920835259 13.277302408090916 0 0 0
428 1 1 0.5897 5.336967171498112 12.604162430263962 13.311505263316969 0 0 0
637 1 2 -1.1794 0.7020399388006086 13.616085439452734 13.060840753278942 0 0 0
638 1 1 0.5897 0.8025224920902846 12.717296047016166 13.374185473638013 0 0 0
295 1 2 -1.1794 7.333822472591817 14.916675586343201 13.98871128892871 0 0 0
270 1 1 0.5897 7.492946349332228 16.624101503432605 13.528750356353521 0 0 0
297 1 1 0.5897 8.12999750612628 14.459479455544644 13.718109837448077 0 0 0
604 1 2 -1.1794 3.029303422359852 17.57153383483748 13.2394353819676 0 0 0
455 1 1 0.5897 5.285769618318021 13.571364865040351 11.235952436660442 0 0 0
269 1 1 0.5897 7.514173143539057 17.342772797599757 12.196538147391609 0 0 0
767 1 1 0.5897 0.8925255309877089 13.58879253166108 11.319834842440343 0 0 0
605 1 1 0.5897 2.964199484933775 17.575021677517782 12.284479295840123 0 0 0
268 1 2 -1.1794 7.582099826146525 17.49385307474536 13.139272666883944 0 0 0
824 1 1 0.5897 3.846447247267718 14.417718628243474 16.924977833498893 0 0 0
664 1 2 -1.1794 3.073591003408336 14.87517147904475 21.323093613939278 0 0 0
50 1 1 0.5897 7.27720380227369 15.735575272119274 16.98775917124582 0 0 0
823 1 2 -1.1794 3.08442987926393 14.931502071099816 16.657573024074196 0 0 0
51 1 1 0.5897 8.031820471489343 14.42787459730942 17.09755423906359 0 0 0
452 1 1 0.5897 0.8032179972810698 12.840582884200623 20.691643802150985 0 0 0
125 1 1 0.5897 5.116475747645641 13.329949930688294 18.374973127064905 0 0 0
124 1 2 -1.1794 5.109517518405629 13.345906264059291 17.417952142159635 0 0 0
684 1 1 0.5897 4.326939505361152 13.89846591659078 20.428958834244654 0 0 0
583 1 2 -1.1794 2.949783669808749 17.440846033991846 17.720581988430176 0 0 0
666 1 1 0.5897 3.121726688104869 15.771787102320827 20.991637106672044 0 0 0
316 1 2 -1.1794 7.258674123690187 14.805923602642018 21.138119732735625 0 0 0
52 1 2 -1.1794 0.8852962718721622 13.427500141545542 17.518376790339232 0 0 0
318 1 1 0.5897 7.335364720692768 15.718954731599858 20.861367343555948 0 0 0
665 1 1 0.5897 2.231617983769308 14.547424600420609 21.007152123751375 0 0 0
584 1 1 0.5897 3.0060835112358246 16.556580510097668 17.358623586800185 0 0 0
683 1 1 0.5897 5.838823737898642 13.8944592104607 20.505838993850766 0 0 0
126 1 1 0.5897 5.832288109962213 13.927495446136918 17.18237780943555 0 0 0
682 1 2 -1.1794 5.097903823670679 13.406582538350099 20.14644659655442 0 0 0
117 1 1 0.5897 8.837015538059758 14.049441710808582 20.72181441355258 0 0 0
53 1 1 0.5897 0.9334717068865038 13.444712761803743 18.474184799055493 0 0 0
451 1 2 -1.1794 0.8351516359819918 13.712967389741149 20.299175417363536 0 0 0
825 1 1 0.5897 2.3327121805816335 14.41200374372901 16.942509087191667 0 0 0
159 1 1 0.5897 7.568802998056311 17.36585146563437 19.34386647305547 0 0 0
715 1 2 -1.1794 3.1041413734376757 17.43997985267903 20.464525718550384 0 0 0
610 1 2 -1.1794 7.395166909966098 17.458315322152572 17.551132187658155 0 0 0
157 1 2 -1.1794 7.485276378896992 17.413288718362757 20.296212779376738 0 0 0
716 1 1 0.5897 3.0791908117214275 17.457915659419115 19.507841692059465 0 0 0
49 1 2 -1.1794 7.248419540630189 14.81961255926026 16.71156998450376 0 0 0
267 1 1 0.5897 6.079717140377215 21.669571286197616 2.853872708227448 0 0 0
696 1 1 0.5897 1.5494112155228894 21.89442781651892 2.8557750878502515 0 0 0
266 1 1 0.5897 4.568275429611725 21.73734229761228 2.8021921557489304 0 0 0
265 1 2 -1.1794 5.29163146522933 21.178578827127872 3.086232019745311 0 0 0
344 1 1 0.5897 1.6303400922989302 18.453934200519832 2.481718462027628 0 0 0
228 1 1 0.5897 5.333756225256997 19.567239410536295 2.3902368940750534 0 0 0
343 1 2 -1.1794 0.7952573029049114 18.839930155758722 2.2175240190774153 0 0 0
817 1 2 -1.1794 7.519519963470183 22.651408431235957 2.3631533604959998 0 0 0
249 1 1 0.5897 5.35213147154397 21.194403501402988 4.86679265604436 0 0 0
226 1 2 -1.1794 5.400374971273305 18.702696455322688 1.9849795732539626 0 0 0
187 1 2 -1.1794 3.0643135980248686 22.567989760214758 2.180965749756326 0 0 0
695 1 1 0.5897 0.7615585313081518 20.60466452679126 2.7698224727520993 0 0 0
694 1 2 -1.1794 0.7562649817430712 21.468834711623238 3.1812684457074027 0 0 0
818 1 1 0.5897 8.380617309496824 22.32601387811747 2.6254256213161824 0 0 0
321 1 1 0.5897 8.97181052014026 18.48710160172636 2.369426848157679 0 0 0
189 1 1 0.5897 3.092865410471931 22.586593794370643 1.2243965460759303 0 0 0
413 1 1 0.5897 0.9011959314898393 21.411251888480002 4.995201155777471 0 0 0
227 1 1 0.5897 4.59916505651819 18.2510711172037 2.2500209044394106 0 0 0
345 1 1 0.5897 0.8336473445798578 18.86366853773744 1.2614113511279799 0 0 0
450 1 1 0.5897 6.790044453600315 17.90744832426799 2.6614534919735795 0 0 0
602 1 1 0.5897 5.300059518625967 18.817457799105114 0.2045345164461314 0 0 0
188 1 1 0.5897 3.063014105910727 23.489683009269378 2.438987876108598 0 0 0
819 1 1 0.5897 7.483151494806737 23.542029713079287 2.711828452264559 0 -1 0
498 1 1 0.5897 7.534095898352826 22.713805860134606 0.507798645821282 0 0 0
555 1 1 0.5897 5.19817102809737 20.53236177686766 10.246752228222086 0 0 0
342 1 1 0.5897 0.7228723153913316 18.72464894946541 7.702512447261734 0 0 0
87 1 1 0.5897 8.1095652471977 22.334157684630128 9.788345389181714 0 0 0
37 1 2 -1.1794 3.005650786941795 22.836111842861328 9.414745726464776 0 0 0
86 1 1 0.5897 7.402749714788544 22.71292543844531 8.504328714052646 0 0 0
248 1 1 0.5897 4.701058444785515 21.82410846543774 6.079767213811108 0 0 0
32 1 1 0.5897 8.371767094755796 22.05929559026316 6.550783650830993 0 0 0
404 1 1 0.5897 1.399481349721249 18.401513513123604 9.841835692350683 0 0 0
39 1 1 0.5897 3.7535462118777487 22.345381898574665 9.755313415974326 0 0 0
553 1 2 -1.1794 5.147822574497391 21.4524957335151 10.505429428660527 0 0 0
701 1 1 0.5897 3.248195610939626 22.727765206928687 7.58361043639499 0 0 0
414 1 1 0.5897 0.8054718737743605 20.547859586430974 6.235000135302014 0 0 0
387 1 1 0.5897 5.445230711418532 19.655017218182422 6.515020999478363 0 0 0
102 1 1 0.5897 5.184191524336597 18.80607334078254 8.667907728368691 0 0 0
700 1 2 -1.1794 3.238111416772056 22.777181506668754 6.6277598304217 0 0 0
385 1 2 -1.1794 5.355742205611692 18.775238818436662 6.881203130698011 0 0 0
702 1 1 0.5897 2.4726901344679253 22.26403881150039 6.368991631352859 0 0 0
38 1 1 0.5897 2.241592889215493 22.325438865475547 9.682285805467016 0 0 0
101 1 1 0.5897 5.909610251897815 18.31043716650224 9.900742137060904 0 0 0
341 1 1 0.5897 1.624524063909971 18.470862838831607 6.513239639865492 0 0 0
33 1 1 0.5897 6.862479673057605 22.156771224040234 6.485356407534053 0 0 0
247 1 2 -1.1794 5.437645000845534 21.272282464804746 5.816955084903667 0 0 0
85 1 2 -1.1794 7.319589186479167 22.760874007333697 9.456679173517609 0 0 0
554 1 1 0.5897 5.928134736965183 21.85263602298133 10.121821902446284 0 0 0
340 1 2 -1.1794 0.7620350714860704 18.811689972347892 6.750104842172955 0 0 0
386 1 1 0.5897 6.133793013526498 18.3082943561623 6.576656913829375 0 0 0
31 1 2 -1.1794 7.6405542568480085 22.637848219753778 6.766985355001501 0 0 0
100 1 2 -1.1794 5.173176923011199 18.855503398916355 9.623743559243232 0 0 0
383 1 1 0.5897 3.6774120488470343 18.0390391926652 10.230699531799822 0 0 0
403 1 2 -1.1794 0.6015308174529038 18.757854674473002 9.451382752736446 0 0 0
94 1 2 -1.1794 0.7910220279840368 21.332591042519702 10.229161338960065 0 0 0
405 1 1 0.5897 0.6027776103175939 19.681226861091794 9.703327809461733 0 0 0
412 1 2 -1.1794 0.8449028409170194 21.460552356504735 5.949451799237695 0 0 0
240 1 1 0.5897 3.901012561715956 17.992548745280715 6.106993359663718 0 0 0
309 1 1 0.5897 8.31417946794321 17.716771809453263 6.12392574672656 0 0 0
185 1 1 0.5897 8.166044864614655 17.859721004204154 10.10624826232601 0 0 0
380 1 1 0.5897 0.7719213411835826 20.53346697345612 13.331456228179453 0 0 0
88 1 2 -1.1794 5.259062922232383 21.494656687706517 13.305105166778878 0 0 0
381 1 1 0.5897 1.4147458122256769 21.903897301871957 13.315023453488529 0 0 0
90 1 1 0.5897 5.2966908745562336 20.586431170832164 13.604786983058855 0 0 0
763 1 2 -1.1794 5.315152741874024 18.885992346149195 13.986128259567016 0 0 0
738 1 1 0.5897 3.741360199497308 22.243142450849497 13.759911258036057 0 0 0
89 1 1 0.5897 5.10071644849555 21.4302625366264 12.363316086130165 0 0 0
764 1 1 0.5897 4.53170708893879 18.432829410847575 13.674671755062331 0 0 0
474 1 1 0.5897 5.228334464895435 18.750918582079947 15.764209741363235 0 0 0
765 1 1 0.5897 6.0438803748559 18.3701674898742 13.641129424201145 0 0 0
350 1 1 0.5897 2.8690379101739176 22.67349283091486 15.771443363477303 0 0 0