LAMMPS data file via write_data, version 30 Jul 2021, timestep = 11000000

864 atoms
2 atom types
576 bonds
1 bond types
288 angles
1 angle types

0.16149705827682936 18.046075341723622 xlo xhi
0.03074180794917325 23.598435992053545 ylo yhi
0.08501097394038837 22.128184826057357 zlo zhi

Masses

1 1.00794
2 15.9994

Atoms # full

707 1 1 0.5897 2.8267445465727503 1.8427346454574367 3.9302442808590774 0 0 0
706 1 2 -1.1794 2.7879099988830194 1.6563007532889498 2.9922231932688295 0 0 0
30 1 1 0.5897 4.898189692428269 3.949154704744911 2.306732122404694 0 0 0
708 1 1 0.5897 2.088574370071746 2.2215655111211623 2.6639800043754263 0 0 0
29 1 1 0.5897 4.234640019022812 2.5911885119697606 2.2179455099017877 0 0 0
28 1 2 -1.1794 5.015502281519045 3.071632187584783 1.9426830118508231 0 0 0
136 1 2 -1.1794 5.443409176828713 5.901513937084075 2.99483987907017 0 0 0
3 1 1 0.5897 0.5419558592134197 3.8468933009941777 2.403678176975302 0 0 0
1 1 2 -1.1794 0.5713704941445436 2.94905530483126 2.072970674357471 0 0 0
494 1 1 0.5897 6.2861204154558585 2.084132582031808 2.7016295826733394 0 0 0
493 1 2 -1.1794 7.069081337626695 1.6231419420441222 3.002930690437539 0 0 0
495 1 1 0.5897 7.791133637719202 2.217382252989717 2.798311773632477 0 0 0
668 1 1 0.5897 5.392070037346654 3.1293609041060213 0.2082943175915692 0 0 0
846 1 1 0.5897 7.305649016441225 1.748974015021553 4.7399333229084855 0 0 0
595 1 2 -1.1794 1.0477369207068694 5.36160726660471 3.3044669416649572 0 0 0
597 1 1 0.5897 1.1336570034066846 5.3960293547191345 4.257134461117757 0 0 0
20 1 1 0.5897 0.8381605384655882 2.8923926956068247 0.21535348839967888 0 0 0
137 1 1 0.5897 5.262544029378506 5.784766408014995 3.927480825869431 0 0 0
419 1 1 0.5897 8.802744505317449 2.998262054884864 6.252040933317552 0 0 0
487 1 2 -1.1794 2.746286042998668 1.999582960930863 5.737833509579066 0 0 0
356 1 1 0.5897 7.378113380823642 0.719044118961744 9.714603018158469 0 0 0
845 1 1 0.5897 7.361052527879971 1.0751266150983882 6.094432920937301 0 0 0
34 1 2 -1.1794 0.6284557776833757 3.1601159185636125 9.56567679306568 0 0 0
676 1 2 -1.1794 5.52941565384456 5.5753545814313945 10.402463823399204 0 0 0
82 1 2 -1.1794 5.182529158355481 3.128188383676383 6.650012634902782 0 0 0
35 1 1 0.5897 0.6865056303263539 4.073929126757508 9.844821933342844 0 0 0
488 1 1 0.5897 2.104328820994764 2.609509637694303 6.10145085013054 0 0 0
84 1 1 0.5897 5.972758386259563 2.6645568513332996 6.372607921139681 0 0 0
355 1 2 -1.1794 7.70256181706165 1.5980630318718094 9.910596413305361 0 0 0
274 1 2 -1.1794 5.476463380336337 3.195068296030589 9.309819242638115 0 0 0
678 1 1 0.5897 5.609133224462192 4.71706584315969 9.986154666787954 0 0 0
83 1 1 0.5897 4.461624054074031 2.5742567491154627 6.350383553857664 0 0 0
36 1 1 0.5897 1.508593738829588 2.810313073440873 9.70470134051622 0 0 0
785 1 1 0.5897 0.86014748972606 3.3969710968614573 7.699436621365036 0 0 0
674 1 1 0.5897 3.8983352461063197 2.523894510558352 9.966027710591131 0 0 0
673 1 2 -1.1794 3.050867511792616 2.120474960743439 10.154135864259674 0 0 0
276 1 1 0.5897 6.269799551471065 2.6595692306018157 9.29570684017286 0 0 0
675 1 1 0.5897 3.2073829560608855 1.1803283363352957 10.06430073586939 0 0 0
275 1 1 0.5897 5.230214913474792 3.2835608802906484 8.389107363567211 0 0 0
183 1 1 0.5897 1.1285980034542833 5.245682596246166 6.427807428299907 0 0 0
489 1 1 0.5897 2.6949922992521964 1.2304722369751846 6.3053968627072585 0 0 0
784 1 2 -1.1794 0.8527131117538884 3.56144756274476 6.756536696445818 0 0 0
686 1 1 0.5897 5.463616636342415 4.7961444790333605 6.116359876867498 0 0 0
357 1 1 0.5897 7.74925713435336 1.6290928519460428 10.866109991297089 0 0 0
844 1 2 -1.1794 7.464920848952935 1.9253900220984501 5.667116749250163 0 0 0
685 1 2 -1.1794 5.642855039556535 5.712163397744656 5.9039089463243775 0 0 0
112 1 2 -1.1794 1.001259811727939 5.756448651325511 10.410481886841692 0 0 0
166 1 2 -1.1794 3.0030777045696135 1.773296159949736 12.82822632479951 0 0 0
167 1 1 0.5897 3.0165620560123543 2.013705023645408 11.901846778962312 0 0 0
457 1 2 -1.1794 5.216441270513141 2.988676808828225 13.940624751518154 0 0 0
458 1 1 0.5897 5.892681970240768 2.381286163388981 13.640456909703179 0 0 0
459 1 1 0.5897 4.42126166606386 2.704389869075367 13.489888523429652 0 0 0
762 1 1 0.5897 5.2062221508110955 4.6921454605995265 13.536060146963644 0 0 0
594 1 1 0.5897 8.264028111289193 1.8000148664486977 13.218199830353843 0 0 0
168 1 1 0.5897 2.2269728604550774 2.2107638967139525 13.178377228003484 0 0 0
365 1 1 0.5897 0.7204278570288741 4.83047138763269 13.217851766707359 0 0 0
592 1 2 -1.1794 7.465619037455879 1.5125452775334287 12.775256278635762 0 0 0
71 1 1 0.5897 5.314981662383227 3.053550975721925 15.765570418807473 0 0 0
468 1 1 0.5897 1.056452406807177 2.992057854055512 14.894478338065401 0 0 0
593 1 1 0.5897 7.351673378302874 0.6032756998453825 13.052008736388705 0 0 0
466 1 2 -1.1794 0.9278377808328846 2.9817209118897936 13.946054173362882 0 0 0
761 1 1 0.5897 5.331809325903247 5.4253635744162425 12.217568038225634 0 0 0
364 1 2 -1.1794 0.6596200053000993 5.7774546519862575 13.091773185206128 0 0 0
760 1 2 -1.1794 5.2154226057262765 5.570845922398212 13.156416641184698 0 0 0
851 1 1 0.5897 8.851803195719924 5.8964873763851715 13.785700571209487 0 0 0
737 1 1 0.5897 2.8584267988498855 0.11994833214266976 13.70492002246676 0 1 0
113 1 1 0.5897 0.9189888015694174 5.825745872391127 11.361590203199043 0 0 0
21 1 1 0.5897 0.9312873444753444 3.845917556861586 21.086342394329435 0 0 0
40 1 2 -1.1794 7.703559355106996 1.8208851636842116 20.261570597731406 0 0 0
135 1 1 0.5897 0.16256443116178332 2.5195801620163354 17.050715019384185 0 0 0
755 1 1 0.5897 7.312655913772956 1.712013790655537 18.494916902933646 0 0 0
754 1 2 -1.1794 7.279535442045968 1.473905943608578 17.568431510301085 0 0 0
667 1 2 -1.1794 5.627760038791119 3.095545252483154 21.324384430578593 0 0 0
289 1 2 -1.1794 3.1842953177807947 1.780595012823238 17.528521656120336 0 0 0
648 1 1 0.5897 0.5438866400668723 5.696344590367946 19.823713300071788 0 0 0
143 1 1 0.5897 5.15657004395172 4.704547003437415 20.608989800578403 0 0 0
569 1 1 0.5897 2.529392599436588 2.307408766095865 20.42075642167043 0 0 0
72 1 1 0.5897 4.6109107722129785 2.6277108856348064 17.036312411915095 0 0 0
570 1 1 0.5897 3.3561584286737784 1.9139348715012447 19.215149959565686 0 0 0
756 1 1 0.5897 6.576121527599968 2.013288820493841 17.207058049800317 0 0 0
669 1 1 0.5897 4.954033955044984 2.5448577074517047 20.925450579275125 0 0 0
133 1 2 -1.1794 0.9211812128271436 3.0385714410155638 16.783343271127812 0 0 0
291 1 1 0.5897 2.4298925742499167 2.2643380815970096 17.1920529291219 0 0 0
568 1 2 -1.1794 3.357052187383461 1.895715622589765 20.17213356181842 0 0 0
41 1 1 0.5897 7.092479653436401 2.3315613944184146 20.792675797763305 0 0 0
42 1 1 0.5897 7.603300921592821 0.9227253066214617 20.577157639636326 0 0 0
278 1 1 0.5897 4.865305898846736 4.879470442047383 17.36613998957376 0 0 0
134 1 1 0.5897 0.8016476945737213 3.881497730599971 17.22096034156105 0 0 0
290 1 1 0.5897 3.0025470495993423 0.8674303583960242 17.30609753493621 0 0 0
646 1 2 -1.1794 0.49911089727147606 5.620192700577749 20.776781272418592 0 0 0
19 1 2 -1.1794 0.9596102182515787 2.915432898616305 21.309378615231793 0 0 0
70 1 2 -1.1794 5.319984515128569 3.1840604613414136 16.71377213496762 0 0 0
599 1 1 0.5897 8.905637101748411 2.2229022031692747 16.914399586747813 0 0 0
144 1 1 0.5897 4.829821044654438 5.726550385852433 19.540903475921535 0 0 0
277 1 2 -1.1794 4.855094256828197 5.770897171017091 17.714853436761477 0 0 0
142 1 2 -1.1794 4.794794374586412 5.5823266387617485 20.48650212504429 0 0 0
571 1 2 -1.1794 0.8507446852387273 5.461919618367004 17.98181421864806 0 0 0
462 1 1 0.5897 8.762813505965573 5.917197875221884 20.856624393734673 0 0 0
711 1 1 0.5897 8.843850535824435 5.740702643131862 17.467163884832328 0 0 0
81 1 1 0.5897 3.1161720303129052 0.07052067155653319 20.489647654250163 0 1 0
217 1 2 -1.1794 5.177840199249879 10.760359652870264 1.867670305722853 0 0 0
123 1 1 0.5897 2.982204259056902 8.891761041087136 2.8008495771173467 0 0 0
121 1 2 -1.1794 3.004095907708464 9.80083104319558 3.0999501534943215 0 0 0
122 1 1 0.5897 3.2646924114491798 9.744753249886562 4.019247714502713 0 0 0
44 1 1 0.5897 1.446326665262002 10.586397778977844 2.54076316611358 0 0 0
218 1 1 0.5897 5.945303406619932 10.284259558549694 2.18491433517205 0 0 0
255 1 1 0.5897 2.4280947533340167 6.6549909217027965 2.764585363664811 0 0 0
219 1 1 0.5897 4.442598510521244 10.375865850967743 2.3450549968695733 0 0 0
417 1 1 0.5897 8.453337252999804 6.431614074552579 2.4046628686434155 0 0 0
162 1 1 0.5897 7.314698499686079 6.813528032750379 0.16374855145922598 0 0 1
254 1 1 0.5897 2.973647738740807 7.0460461467397595 1.407672067960513 0 0 0
415 1 2 -1.1794 7.774195013431501 6.924129069293914 1.9436929280152015 0 0 0
43 1 2 -1.1794 0.710691321088037 10.956753001858424 2.052948934360364 0 0 0
66 1 1 0.5897 7.6910537780143375 9.679624194238219 3.715907791015855 0 0 0
65 1 1 0.5897 7.9016596712521485 8.798078621152419 2.5033095881817764 0 0 0
64 1 2 -1.1794 7.748788674236218 9.707268756021683 2.7608975276036762 0 0 0
253 1 2 -1.1794 3.074154941165667 7.221840118814479 2.343165268674934 0 0 0
416 1 1 0.5897 6.95206677609712 6.607072547956116 2.317713955679537 0 0 0
138 1 1 0.5897 4.743051003773063 6.475616396873474 2.684610466164733 0 0 0
596 1 1 0.5897 0.3437252638467605 5.978645517548789 3.104551533334221 1 0 0
396 1 1 0.5897 1.0222387983161383 10.91483157106491 0.2246367279834219 0 0 0
712 1 2 -1.1794 7.63609997808364 9.931714587585258 5.501598661335674 0 0 0
551 1 1 0.5897 0.8909962701909498 11.138774397585374 7.38303925871425 0 0 0
578 1 1 0.5897 6.242724706034757 10.732013854381005 6.494758478421399 0 0 0
10 1 2 -1.1794 3.604159064522956 7.028333480371111 6.907286382845191 0 0 0
526 1 2 -1.1794 7.774980960026895 6.928927346338764 9.319415004999163 0 0 0
145 1 2 -1.1794 7.761767167535116 7.381910175808372 6.501147972772651 0 0 0
580 1 2 -1.1794 5.796273585892735 11.120388757456412 9.7801001347689 0 0 0
822 1 1 0.5897 8.537191342439177 10.025794447881857 10.120611553949452 0 0 0
793 1 2 -1.1794 3.4586053966852646 9.549107376778036 5.8782602863110895 0 0 0
714 1 1 0.5897 7.625463414777755 9.037612205061018 5.843358989220275 0 0 0
258 1 1 0.5897 4.152061645421909 10.343221748944618 10.192200411063162 0 0 0
650 1 1 0.5897 3.4264217323181954 7.1935886592107785 8.750075869156289 0 0 0
528 1 1 0.5897 8.541589917406911 6.470923972757739 9.664257418812795 0 0 0
527 1 1 0.5897 7.905853681008103 7.84209443257151 9.575058295614548 0 0 0
15 1 1 0.5897 1.6453659135134722 10.4065983039488 9.480140754569906 0 0 0
651 1 1 0.5897 4.283549855062953 6.7052425246075735 9.898432142514382 0 0 0
581 1 1 0.5897 6.5041240106835385 10.539331547060362 10.058790970376135 0 0 0
147 1 1 0.5897 7.819979213508228 7.361670165424194 7.456317799296058 0 0 0
146 1 1 0.5897 6.996722744980155 6.844398252702204 6.29590054607945 0 0 0
649 1 2 -1.1794 3.526346471608056 7.256219326026654 9.699939454215802 0 0 0
577 1 2 -1.1794 5.527956681648981 11.12122933621171 6.998643249555385 0 0 0
14 1 1 0.5897 0.7861781614499348 11.641316383926169 9.65184319136665 0 0 0
12 1 1 0.5897 3.6246406207052546 7.923256336900723 6.568124233841684 0 0 0
794 1 1 0.5897 2.605889581573748 9.866170964282027 6.176018958498093 0 0 0
257 1 1 0.5897 3.490098752598191 8.983955529398697 10.112192281509545 0 0 0
550 1 2 -1.1794 0.8212734826529705 11.034305339622222 6.434161111926831 0 0 0
820 1 2 -1.1794 7.782323616567175 9.499346566483844 10.383967168704661 0 0 0
11 1 1 0.5897 2.7666457819559818 6.6764040943638525 6.60556898394431 0 0 0
713 1 1 0.5897 8.287731530719647 10.38534397410011 6.036270448548816 0 0 0
13 1 2 -1.1794 0.8065756447206669 10.787373988333345 9.219775420948498 0 0 0
582 1 1 0.5897 5.668175293986841 10.91544210474425 8.853947210817664 0 0 0
256 1 2 -1.1794 3.3151546400980414 9.899506407086632 10.33016812559227 0 0 0
795 1 1 0.5897 4.092815045677395 10.106035804438772 6.329821339894296 0 0 0
687 1 1 0.5897 4.933718225763813 6.19916795820508 6.323824152661819 0 0 0
114 1 1 0.5897 1.7359450988202227 6.329461534030321 10.190764595418306 0 0 0
181 1 2 -1.1794 1.2648407335426894 6.110037305622522 6.039664030732976 0 0 0
182 1 1 0.5897 0.41527422080392906 6.544362462760678 6.116706345666813 1 0 0
677 1 1 0.5897 6.331068329244153 6.036945718383181 10.156263461883123 0 0 0
828 1 1 0.5897 7.378813816103679 6.8670873742175935 14.891359965080223 0 0 0
827 1 1 0.5897 6.700360285333132 6.57292099403214 13.570388864686022 0 0 0
332 1 1 0.5897 2.98265243358223 7.855299621624797 13.650923420682187 0 0 0
797 1 1 0.5897 3.4452818627458015 9.582517911250708 12.166090289760925 0 0 0
796 1 2 -1.1794 3.4647268217904927 9.403260660200278 13.106113153922161 0 0 0
798 1 1 0.5897 2.746853034311981 9.925103240556904 13.464805416558757 0 0 0
722 1 1 0.5897 4.746650997010546 10.398010895427593 14.024914381857808 0 0 0
821 1 1 0.5897 7.841093998760925 9.45619329843588 11.33834096578312 0 0 0
261 1 1 0.5897 1.1185892998466622 10.761124101235199 14.896105532681641 0 0 0
721 1 2 -1.1794 5.330094018992468 11.090969512779221 14.33432776219801 0 0 0
723 1 1 0.5897 5.2602520504080275 11.055285998790813 15.288264227383495 0 0 0
331 1 2 -1.1794 2.8486580344025083 6.988430472130587 14.034212109213698 0 0 0
225 1 1 0.5897 2.741548527272074 7.192271142438803 15.787480121415616 0 0 0
826 1 2 -1.1794 7.495495582331841 6.951923346260757 13.945136148925757 0 0 0
475 1 2 -1.1794 7.736459868009142 9.527443594219916 13.00738320570789 0 0 0
476 1 1 0.5897 7.022296999292277 10.069602615064051 13.34258292899549 0 0 0
477 1 1 0.5897 7.6794713886177215 8.716278861973512 13.512427560796958 0 0 0
259 1 2 -1.1794 1.1812111455452186 10.603620180661197 13.95407262015903 0 0 0
333 1 1 0.5897 3.6255670185273603 6.490618542117173 13.779418830357303 0 0 0
260 1 1 0.5897 0.39765794155533385 10.095839665252345 13.74304314448555 0 0 0
104 1 1 0.5897 8.988234090603157 10.714157110907026 13.601109163472536 0 0 0
366 1 1 0.5897 1.5010530748535729 6.115010403221817 13.398964707936276 0 0 0
627 1 1 0.5897 2.475027498885339 10.12159418800337 17.399593147423904 0 0 0
4 1 2 -1.1794 2.8812474891044033 6.929989446300586 21.722589192344046 0 0 0
7 1 2 -1.1794 7.592167447957082 9.351744984117927 17.914858151162377 0 0 0
139 1 2 -1.1794 7.782220183645746 9.45759715984668 20.68410581097983 0 0 0
160 1 2 -1.1794 7.131514582510897 6.9291611489895395 21.274599927039276 0 0 0
681 1 1 0.5897 5.349841989171878 11.65155098564273 17.140123981086532 0 0 0
141 1 1 0.5897 7.640052162070857 8.53993568043777 20.91662570070062 0 0 0
445 1 2 -1.1794 0.7220701378265476 10.879744644960667 16.72251806780662 0 0 0
9 1 1 0.5897 6.902779561527427 9.922112527270041 17.574633672801045 0 0 0
223 1 2 -1.1794 2.6974079838138643 7.05414648470975 16.733587790604584 0 0 0
690 1 1 0.5897 2.3261156862631127 10.036261829870142 20.78409435136609 0 0 0
625 1 2 -1.1794 3.1510951490380052 9.591827085216178 17.82220894144544 0 0 0
688 1 2 -1.1794 3.081935589661425 9.483849098835119 20.58430319544487 0 0 0
140 1 1 0.5897 6.983665338922701 9.90335543706372 20.966868102799378 0 0 0
224 1 1 0.5897 2.7826198735591166 7.930875795544676 17.108302529848164 0 0 0
689 1 1 0.5897 3.839107945278294 10.050830341697893 20.731175284843545 0 0 0
5 1 1 0.5897 3.5263633582909604 6.430097240187311 21.22236889996549 0 0 0
626 1 1 0.5897 2.9329852268056844 9.623015727062393 18.753669953133286 0 0 0
161 1 1 0.5897 6.318088486708628 6.446232038075416 21.12813983472457 0 0 0
6 1 1 0.5897 2.9235445133507634 7.8126408367981215 21.354463142287592 0 0 0
361 1 2 -1.1794 5.40269383934162 10.8644071904466 21.13858465034995 0 0 0
8 1 1 0.5897 7.517614352839077 9.426410951884229 18.866198189021755 0 0 0
394 1 2 -1.1794 0.9563129760294633 11.1467784623285 21.34151861946723 0 0 0
680 1 1 0.5897 4.660255350002894 10.318808522263502 17.341319286329327 0 0 0
520 1 2 -1.1794 7.361616152497719 6.726729286558158 16.750928144322426 0 0 0
647 1 1 0.5897 1.3344059475061352 5.971676318155648 21.085096355758072 0 0 0
362 1 1 0.5897 5.150378082127911 11.754884626131453 20.894167602663703 0 0 0
246 1 1 0.5897 9.038094651541453 10.108218074873621 17.067879333352067 0 0 0
522 1 1 0.5897 7.578001298089426 7.571743743412672 17.145204171175173 0 0 0
521 1 1 0.5897 6.482443193687937 6.529220041698134 17.07398592366074 0 0 0
679 1 2 -1.1794 5.4432120578171945 10.71604634524579 16.95988891848313 0 0 0
395 1 1 0.5897 0.24008688217848473 10.60566371068457 21.009051692990276 0 0 0
446 1 1 0.5897 0.5445572700691437 11.764755754383746 17.04128062569969 0 0 0
572 1 1 0.5897 1.4939639358862307 5.940039192218141 17.458404144367286 0 0 0
279 1 1 0.5897 4.093232642981236 6.1803776866835705 17.304738181659754 0 0 0
363 1 1 0.5897 5.288521628631277 10.834836490200628 22.088450989951873 0 0 0
374 1 1 0.5897 0.5648284032271469 13.817362974460094 3.994771263880676 0 0 0
173 1 1 0.5897 4.391126135379719 13.885763914357971 2.655566869901671 0 0 0
172 1 2 -1.1794 5.058587774200101 13.363309619741845 3.1003576149628884 0 0 0
293 1 1 0.5897 3.0109789140866723 16.718219319303845 2.866805136728709 0 0 0
558 1 1 0.5897 2.818563304420022 15.019097223177583 1.2396088096507552 0 0 0
556 1 2 -1.1794 2.8806637004272955 15.065575951109842 2.1936465075562857 0 0 0
557 1 1 0.5897 2.102743833453866 14.604406512111373 2.507473583426996 0 0 0
478 1 2 -1.1794 7.114843547380868 15.015743846540547 2.379729718147703 0 0 0
200 1 1 0.5897 4.862066067504847 13.471683999161165 5.025611522791106 0 0 0
174 1 1 0.5897 5.114439577787321 12.557499370912003 2.5866942755489797 0 0 0
479 1 1 0.5897 7.886774112303428 14.485288019206314 2.57743056558993 0 0 0
449 1 1 0.5897 7.441898096410783 16.815792345309635 2.6819951529991344 0 0 0
480 1 1 0.5897 6.376497720764516 14.487576374247686 2.683405515948444 0 0 0
373 1 2 -1.1794 0.5103022170672219 13.712870821407035 3.044899297171871 0 0 0
45 1 1 0.5897 0.6798978129441121 11.874090813911554 2.3247924505263784 0 0 0
317 1 1 0.5897 6.963668020060909 15.001859237590791 0.46291849558228765 0 0 0
292 1 2 -1.1794 3.198973938378207 17.637392124342494 3.056886265681425 0 0 0
518 1 1 0.5897 7.467553884651126 16.079437811147017 6.250611711346413 0 0 0
186 1 1 0.5897 7.337454880637778 16.760161368295773 9.880852240329421 0 0 0
552 1 1 0.5897 0.6975661293169738 11.923986294812371 6.103252273340601 0 0 0
59 1 1 0.5897 9.0854985681925 14.22045428122736 10.079483624704759 0 0 0
811 1 2 -1.1794 2.8601628196146542 14.692445324360166 9.510468805504296 0 0 0
454 1 2 -1.1794 5.361851567222535 13.778386465192298 10.46846930157583 0 0 0
813 1 1 0.5897 2.2058212576592564 14.047490398614134 9.779172022839695 0 0 0
17 1 1 0.5897 2.7863175240126354 15.031843352509616 7.636273399590124 0 0 0
384 1 1 0.5897 2.635248016325622 16.429852241116226 9.968477337084911 0 0 0
377 1 1 0.5897 6.686469872910097 14.691648422333113 9.473228451693782 0 0 0
376 1 2 -1.1794 7.5735218955491 14.988235170265561 9.26951569712128 0 0 0
519 1 1 0.5897 8.369515251888913 14.863437682071368 6.249107966328047 0 0 0
456 1 1 0.5897 5.5685618200216425 12.872343924851474 10.238766291501047 0 0 0
812 1 1 0.5897 3.677194552776064 14.38258614148385 9.901304075680695 0 0 0
201 1 1 0.5897 5.8367423076562 14.272959164623263 5.862258277520038 0 0 0
18 1 1 0.5897 3.610491627642759 14.588721230129007 6.446213408050245 0 0 0
16 1 2 -1.1794 2.8623558377861804 15.13489074953044 6.6877214218623475 0 0 0
517 1 2 -1.1794 7.5041602165496135 15.163724357275033 6.527162426043535 0 0 0
766 1 2 -1.1794 0.6893626171359843 13.279176722406238 10.252636235234922 0 0 0
378 1 1 0.5897 7.614272747616256 14.984007317960838 8.31323716533014 0 0 0
656 1 1 0.5897 1.3665195522064122 14.333293391421556 6.013478115394645 0 0 0
199 1 2 -1.1794 5.079317147636157 13.691701172896849 5.931457893689717 0 0 0
382 1 2 -1.1794 2.628974663212998 17.37011927503816 10.14797392362075 0 0 0
239 1 1 0.5897 2.8116313438370026 16.918965434679702 6.1640417570159824 0 0 0
579 1 1 0.5897 5.463215844319447 12.018016134078666 6.6701317611372435 0 0 0
184 1 2 -1.1794 7.217255958349374 17.660593707578656 10.18271987421894 0 0 0
383 1 1 0.5897 3.4276577937473025 17.698627552655786 9.73501460816863 0 0 0
655 1 2 -1.1794 0.6398319460459343 13.750524970083214 5.792930703063891 0 0 0
429 1 1 0.5897 5.938249316699659 14.07026023780895 13.55424585150103 0 0 0
232 1 2 -1.1794 2.77574294631778 14.97026389697669 13.632788292748385 0 0 0
234 1 1 0.5897 2.7388725331821546 15.007008237945591 14.588528295717726 0 0 0
606 1 1 0.5897 2.9884388801982515 16.63895935618463 13.095052825094859 0 0 0
427 1 2 -1.1794 5.153638164570549 13.585490353543438 13.297892859168357 0 0 0
233 1 1 0.5897 3.6343494123639335 14.59345727470479 13.44006349195737 0 0 0
639 1 1 0.5897 1.3254179367493064 13.669216985015444 13.173662789771369 0 0 0
428 1 1 0.5897 5.284630262275618 12.708613503994826 13.65881855015279 0 0 0
637 1 2 -1.1794 0.5832975360911514 13.099343225547104 12.97158879798315 0 0 0
297 1 1 0.5897 8.13751038644968 14.681302017227775 13.717041112975263 0 0 0
296 1 1 0.5897 7.456671227333419 15.104043738999259 15.001404448159137 0 0 0
295 1 2 -1.1794 7.3078567890597315 15.013291944194602 14.060234445012899 0 0 0
270 1 1 0.5897 7.36107841364104 16.67504693044673 13.207659519696886 0 0 0
638 1 1 0.5897 0.7657293152056914 12.289520390905247 13.448279371741812 0 0 0
268 1 2 -1.1794 7.379897507044979 17.60272422649934 12.972217537927962 0 0 0
269 1 1 0.5897 7.354907235586341 17.608007352383165 12.01540336864136 0 0 0
767 1 1 0.5897 0.48317717748018996 13.214059421971868 11.185055759184648 0 0 0
455 1 1 0.5897 5.163063175718178 13.749263295530708 11.404307862770354 0 0 0
604 1 2 -1.1794 2.973507142000183 17.572242318990405 12.882588195422741 0 0 0
605 1 1 0.5897 2.8336823989785485 17.600674143229185 11.936126599337308 0 0 0
823 1 2 -1.1794 2.998746707214524 14.956478499805545 16.351766217777794 0 0 0
824 1 1 0.5897 3.8177024646351776 14.534893173812842 16.612463455497583 0 0 0
716 1 1 0.5897 3.156625742139894 17.03190135264937 19.385430903017827 0 0 0
664 1 2 -1.1794 2.7705406746352947 14.743595073499064 21.546745767913794 0 0 0
715 1 2 -1.1794 3.154893891054345 17.124059921396395 20.33815807489184 0 0 0
825 1 1 0.5897 2.3258592821639477 14.51466107333814 16.869744969283126 0 0 0
665 1 1 0.5897 2.007220776444986 14.375096575302315 21.101929953557537 0 0 0
51 1 1 0.5897 8.448229694414652 14.363404312599124 17.284368265046318 0 0 0
125 1 1 0.5897 5.262326081904304 13.467994130649565 18.43932498755501 0 0 0
717 1 1 0.5897 3.983171171852899 17.5600808460938 20.538585659094004 0 0 0
684 1 1 0.5897 4.082265966729299 13.903231682269187 20.778667900975137 0 0 0
452 1 1 0.5897 0.7043296505226109 12.826701164978553 20.798004093191754 0 0 0
666 1 1 0.5897 2.8466799537001135 15.631458787509224 21.19712773618291 0 0 0
318 1 1 0.5897 7.502054366562902 15.881502871416853 21.39778184757434 0 0 0
117 1 1 0.5897 8.687158224201601 14.231996460284051 21.07034798823682 0 0 0
316 1 2 -1.1794 7.005500039889105 15.077916944426534 21.552870814365797 0 0 0
126 1 1 0.5897 6.048907579635415 13.987082885811537 17.254542169143008 0 0 0
53 1 1 0.5897 0.8233491940657445 13.547851614885879 18.399498213395926 0 0 0
683 1 1 0.5897 5.588858478637416 14.005636775813933 20.66949085349886 0 0 0
52 1 2 -1.1794 0.764410905464258 13.474277850498126 17.4469985422564 0 0 0
682 1 2 -1.1794 4.84720134458014 13.455623347620104 20.4169282654117 0 0 0
124 1 2 -1.1794 5.255839781916065 13.502029692407474 17.48279985266882 0 0 0
584 1 1 0.5897 3.0191190876793788 16.499940260911067 17.09060565333893 0 0 0
50 1 1 0.5897 7.577606053978973 15.597868136092412 17.386051116995645 0 0 0
451 1 2 -1.1794 0.5991516379099229 13.641983313235276 20.307539190922732 0 0 0
583 1 2 -1.1794 3.1014308633448637 17.289434696055807 17.625612868022085 0 0 0
610 1 2 -1.1794 7.566199589555664 17.42268426577505 17.952475326020163 0 0 0
49 1 2 -1.1794 7.6507588717409645 14.758439184922803 16.93180576351345 0 0 0
585 1 1 0.5897 3.9834221697732453 17.612991445952094 17.441944962470785 0 0 0
267 1 1 0.5897 5.767440505478584 21.914065128846712 2.651416463638176 0 0 0
696 1 1 0.5897 1.6318014033668309 21.991028936594216 3.048834759264791 0 0 0
266 1 1 0.5897 4.263961345090463 22.091051720212754 2.674316019867035 0 0 0
265 1 2 -1.1794 4.959425435703907 21.488746977088255 2.9387637168359824 0 0 0
249 1 1 0.5897 4.871571482377717 21.203188998664825 4.912785831774698 0 0 0
228 1 1 0.5897 5.126312401011196 19.912155794671236 1.8899184403422697 0 0 0
450 1 1 0.5897 6.969883595287089 18.180650651089405 2.2275093356828473 0 0 0
413 1 1 0.5897 0.6915568215084335 21.77315862993397 5.138399234841942 0 0 0
694 1 2 -1.1794 0.9045491999987044 21.46093386146861 3.375057047912231 0 0 0
226 1 2 -1.1794 5.258120215831325 18.976896146990445 1.734055822646031 0 0 0
187 1 2 -1.1794 2.852200632314621 22.67616257175367 1.8323781137239807 0 0 0
227 1 1 0.5897 4.537054445757758 18.552151713675837 2.1987905234543663 0 0 0
818 1 1 0.5897 8.155862836391634 22.40205067740695 2.1959320601006334 0 0 0
189 1 1 0.5897 2.9177367565133077 22.84679052227475 0.8928270799951297 0 0 0
344 1 1 0.5897 1.8562223958263027 18.68068934645126 2.2371449564716452 0 0 0
695 1 1 0.5897 0.9834900054879581 20.630357518478327 2.905782057779945 0 0 0
343 1 2 -1.1794 1.068405243962085 19.067167747546126 1.8546480983682498 0 0 0
817 1 2 -1.1794 7.235019387053899 22.550156632554923 1.980252382514693 0 0 0
345 1 1 0.5897 1.1120220087684476 18.832887032116368 0.9276217179016444 0 0 0
498 1 1 0.5897 7.329749501603857 22.75562095491432 0.17063618561306132 0 0 0
448 1 2 -1.1794 7.614430457461348 17.751170279189814 2.7899944742699363 0 0 0
294 1 1 0.5897 3.1016771780408456 17.710874698685547 4.0062441872087415 0 0 0
308 1 1 0.5897 7.476769333442654 17.82098301259965 4.646083854788937 0 0 0
188 1 1 0.5897 2.8544651429634933 23.544750324520475 2.234718551184073 0 0 0
819 1 1 0.5897 7.034883616384768 23.40673382037818 2.357826700090407 0 -1 0
702 1 1 0.5897 2.0337731187573405 22.615605941127757 6.633246247102926 0 0 0
387 1 1 0.5897 5.13450830057079 19.783565355304063 6.401379045889294 0 0 0
701 1 1 0.5897 2.9346325774681055 22.834993092226355 7.829996176372754 0 0 0
386 1 1 0.5897 6.0768003219828035 18.60478649784237 6.279700714787786 0 0 0
405 1 1 0.5897 0.8067364854462398 19.709515801064114 9.537026621428078 0 0 0
385 1 2 -1.1794 5.37454839667073 18.959381273319565 6.825023526505478 0 0 0
101 1 1 0.5897 5.650402281284142 18.16757140556405 9.82963565265035 0 0 0
85 1 2 -1.1794 7.275163398355136 22.434270416315716 9.552419723429011 0 0 0
39 1 1 0.5897 3.786905898363232 22.36024214384057 10.010052056762568 0 0 0
37 1 2 -1.1794 3.089424725735428 22.888961391968298 9.622347516966041 0 0 0
86 1 1 0.5897 7.411260048213027 22.664694548892815 8.633426173153659 0 0 0
309 1 1 0.5897 8.115648143935616 18.28875732892388 5.936370881774676 0 0 0
100 1 2 -1.1794 4.890545141748001 18.555254082855285 9.395326337052243 0 0 0
102 1 1 0.5897 5.197328334804462 18.759294735208098 8.511907308721902 0 0 0
700 1 2 -1.1794 2.8700492178200356 23.004195848880833 6.890113803450889 0 0 0
555 1 1 0.5897 5.080736016842079 20.135238666798443 10.191591203686409 0 0 0
33 1 1 0.5897 6.51481732962466 22.612297017013866 6.496403387107522 0 0 0
38 1 1 0.5897 2.2830232638316263 22.425083294091927 9.847870087706717 0 0 0
341 1 1 0.5897 1.5495987228845907 18.51596199060195 6.399900950602242 0 0 0
240 1 1 0.5897 3.833559169061446 18.03000408719985 6.048106646838438 0 0 0
31 1 2 -1.1794 7.292602315701225 23.019998081904486 6.877371085304438 0 0 0
94 1 2 -1.1794 0.8683983624866616 21.461626455485384 10.087228278079435 0 0 0
248 1 1 0.5897 4.142119625810086 21.834405776843873 6.079571903533536 0 0 0
554 1 1 0.5897 5.785213411803366 21.449236300156723 9.928321919397249 0 0 0
414 1 1 0.5897 0.46266107274082025 20.908257281746746 6.359639163435006 0 0 0
404 1 1 0.5897 1.3650295895510114 18.302660691781806 9.572861714641382 0 0 0
553 1 2 -1.1794 5.080531445085295 21.058360005190305 10.444970088795761 0 0 0
87 1 1 0.5897 8.156777985575477 22.292686946606704 9.897405865070366 0 0 0
342 1 1 0.5897 0.6807149144789103 18.95935213067516 7.557636746443851 0 0 0
32 1 1 0.5897 8.019294268351144 22.692584458222306 6.347259914386969 0 0 0
403 1 2 -1.1794 0.627897264026751 18.816379085977474 9.242636742538526 0 0 0
340 1 2 -1.1794 0.7047191752346124 18.91821147182163 6.60166571997776 0 0 0
185 1 1 0.5897 7.921360534937892 18.151743326960766 9.759263596602707 0 0 0
96 1 1 0.5897 0.9048517649536069 21.54235264346565 11.040287618127934 0 0 0
412 1 2 -1.1794 0.5264118989055835 21.82156421420662 6.07996743588444 0 0 0
238 1 2 -1.1794 2.9322580119551547 17.803521005868223 5.818580280027172 0 0 0
247 1 2 -1.1794 4.979411476985276 21.440881987949577 5.833681422790337 0 0 0
307 1 2 -1.1794 7.432621308572165 17.710952875841954 5.595868123065541 0 0 0
380 1 1 0.5897 0.855420813001798 20.579174134180825 13.186468473234939 0 0 0
88 1 2 -1.1794 5.057915776918715 21.29715905357262 13.123495569362262 0 0 0
381 1 1 0.5897 1.5612214640493611 21.915082863486806 13.283562124499879 0 0 0
90 1 1 0.5897 4.938698437519498 20.41335150914753 13.471394846402363 0 0 0
763 1 2 -1.1794 5.088649454883329 18.68262912561235 14.273109788455812 0 0 0
738 1 1 0.5897 3.7203562072863448 22.446058733308508 13.793142230858232 0 0 0
89 1 1 0.5897 5.0114369649540516 21.18936300800294 12.173566235656272 0 0 0
736 1 2 -1.1794 2.870574746146728 22.798062212833784 14.058269456993138 0 0 0
789 1 1 0.5897 6.5800963845884874 22.0085825989026 13.598574420007894 0 0 0
765 1 1 0.5897 5.869316508383621 18.274872731116435 13.89814474027082 0 0 0
787 1 2 -1.1794 7.333987579236765 22.50382225903379 13.919045926758665 0 0 0
379 1 2 -1.1794 0.8272139694171825 21.476220442433068 12.853515721275507 0 0 0
350 1 1 0.5897 2.5921168204126825 22.60281446850629 15.740043663261565 0 0 0
474 1 1 0.5897 5.361985603625464 18.718600904747795 15.98150682027729 0 0 0