LAMMPS data file via write_data, version 30 Jul 2021, timestep = 7750000

1296 atoms
2 atom types
864 bonds
1 bond types
432 angles
1 angle types

-10.60946275911182 12.58946275911182 xlo xhi
-9.079024922217656 12.069022922217655 ylo yhi
0.20536455176768698 21.65463444823949 zlo zhi
-9.218247777351735 1.7447261090204125 2.7824649506705366 xy xz yz

Masses

1 1.008
2 15.999

Pair Coeffs # lj/cut/tip4p/long/omp

1 0 0
2 0.21084 3.1668

Bond Coeffs # harmonic/omp

1 450 0.9572

Angle Coeffs # harmonic/omp

1 55 104.52

Atoms # full

282 94 1 0.5897 -10.56318128533972 -4.1556292012009655 1.8131506723671142 1 1 0
280 94 2 -1.1794 -9.71605714770174 -4.598164387589218 1.7606566955843004 1 1 0
299 100 1 0.5897 -6.600493595092359 -8.085290685279935 4.279476901538112 1 1 0
163 55 2 -1.1794 -7.259016242026572 -8.171775293844915 0.9619788484058274 1 1 0
164 55 1 0.5897 -6.499200205066032 -8.538666732683213 1.4139271519343188 1 1 0
270 90 1 0.5897 -8.472414614414488 -7.392438763783666 2.1572148441652335 1 1 0
269 90 1 0.5897 -9.345660066547161 -6.1823629989383395 2.4121835469088824 1 1 0
268 90 2 -1.1794 -9.15887618446434 -7.063040121863992 2.7373246867892043 1 1 0
324 108 1 0.5897 -7.249904913450703 -4.701969364176714 3.6385670409519117 1 1 0
73 25 2 -1.1794 -8.482021451869567 -3.878183165845111 4.811305477852502 1 0 0
298 100 2 -1.1794 -5.968495727738157 -7.366341094854135 4.278554453614369 1 1 0
314 105 1 0.5897 -8.761709732759924 -6.797359759838876 4.528013118465499 1 1 0
275 92 1 0.5897 -10.498510556850194 -7.8379669911932615 3.587693156572557 1 1 0
323 108 1 0.5897 -6.222322772199238 -5.763676308463669 3.308915891641484 1 1 0
315 105 1 0.5897 -8.775927209301358 -5.602469969538922 5.457585615587453 1 1 0
318 106 1 0.5897 -2.8483216621623653 -4.249816615791301 1.6665513378855665 1 1 0
3 1 1 0.5897 -1.548824048946555 -3.398781592614979 4.4860536037393075 0 0 0
300 100 1 0.5897 -5.118368691808403 -7.7942205573037295 4.176487405262703 1 1 0
310 104 2 -1.1794 -3.4477649711979765 -8.392437635163708 3.9025815283883545 1 1 0
199 67 2 -1.1794 0.4858184080519923 -7.815035254719183 1.0389708515824077 1 1 0
311 104 1 0.5897 -2.7900782346640636 -7.869355463184604 3.444187378985859 1 1 0
261 87 1 0.5897 -6.811615534034804 -5.19683898895319 1.0863116299657383 1 1 0
322 108 2 -1.1794 -6.577995987094491 -4.931707474923721 2.996675450773563 1 1 0
243 81 1 0.5897 -1.061799474156203 -5.28466925493866 5.477714002843858 0 1 0
306 102 1 0.5897 -0.7371698879196771 -7.235018011435247 2.2582592430332036 1 1 0
304 102 2 -1.1794 -1.3902057751732038 -6.872113676872063 2.856690112567608 1 1 0
316 106 2 -1.1794 -1.9704500214180047 -4.605064709205332 1.5274868231955767 1 1 0
305 102 1 0.5897 -1.5604611769282393 -5.992032645894074 2.521014301298727 1 1 0
242 81 1 0.5897 -1.1401548492852296 -6.60364966984409 4.7386651457199855 0 1 0
259 87 2 -1.1794 -6.668162547396568 -5.548499618976733 0.2076427902592238 1 1 0
293 98 1 0.5897 -5.16940396772718 -3.777071974918208 2.354976439127645 1 1 0
313 105 2 -1.1794 -8.69366468525468 -6.556117820521779 5.4518441171018885 1 1 0
317 106 1 0.5897 -1.3827173434387472 -3.873754862520996 1.717420405821402 1 1 0
281 94 1 0.5897 -9.075768620705835 -3.887462078092252 1.7253587917402142 1 1 0
75 25 1 0.5897 -9.283356415433273 -3.4927710078138823 4.457068634357301 1 0 0
74 25 1 0.5897 -8.16267679866247 -3.2316536225753145 5.440855151172691 1 0 0
260 87 1 0.5897 -6.940579714928258 -6.464145840326829 0.26816014399158505 1 1 0
201 67 1 0.5897 0.24501363915769758 -8.365759730451593 0.2939676079645569 1 1 0
165 55 1 0.5897 -7.393700648868105 -8.749728920767023 0.2108878950919367 1 1 0
1226 409 1 0.5897 -10.028992400711633 -5.566803788835529 0.20801035550375455 0 0 1
420 140 1 0.5897 -9.2675796259768 -6.200406535350844 9.789786602579287 1 0 0
414 138 1 0.5897 -6.705645615959886 -4.972402231847621 7.259187138080899 1 0 0
413 138 1 0.5897 -7.521888459345183 -3.7317848698335263 7.553258037516563 1 0 0
412 138 2 -1.1794 -7.3515891759791865 -4.61862024824792 7.870636624449107 1 0 0
350 117 1 0.5897 -7.221825982703568 -4.422812002476245 9.720313122939393 0 0 0
429 143 1 0.5897 -6.700627447535092 -6.995689016966703 8.80628659344861 1 0 0
428 143 1 0.5897 -6.77855933540881 -6.976547882466939 10.318101183445192 1 0 0
427 143 2 -1.1794 -6.172694994075746 -6.840681358772423 9.58956518391666 1 0 0
618 206 1 0.5897 -7.683774569976862 -7.386268605965956 6.628758572510776 1 1 0
419 140 1 0.5897 -8.95505273369815 -5.301078858371948 8.612718162689266 1 0 0
418 140 2 -1.1794 -9.683841463676183 -5.70117610101576 9.087157337576839 1 0 0
553 185 2 -1.1794 -3.2770195019767456 -6.969522735187452 7.064610196080028 0 1 0
626 209 1 0.5897 -10.538721134445465 -6.754204137237138 7.8634133223407 1 1 0
544 182 2 -1.1794 0.2508685357706 -7.974156141140805 7.3029309616316445 0 1 0
555 185 1 0.5897 -2.692773948484958 -6.8628243621576965 6.313898541508397 0 1 0
631 211 2 -1.1794 -5.348617320158874 -5.4168901672686545 6.268284161345271 1 1 0
627 209 1 0.5897 -10.295196768823592 -6.984718821345355 6.387061657734037 1 1 0
335 112 1 0.5897 -4.9108648652790565 -5.349471831563479 9.337091817685232 0 0 0
349 117 2 -1.1794 -7.204266261526345 -4.131274435592941 10.631903769689 0 0 0
546 182 1 0.5897 -0.2555174913572351 -7.310720260881471 6.8343169797768075 0 1 0
346 116 2 -1.1794 -1.8684097423376205 -5.886214366590984 9.19093855945678 0 0 0
359 120 1 0.5897 -4.616909553339054 -3.0629873568031805 8.936622858990127 0 0 0
347 116 1 0.5897 -1.1969785565944289 -5.318080528409791 8.813176288746769 0 0 0
334 112 2 -1.1794 -4.270746226058627 -4.664007074961821 9.528653126197005 0 0 0
348 116 1 0.5897 -1.3924129228499016 -6.4440603209452 9.80609330468396 0 0 0
336 112 1 0.5897 -3.4224513927859883 -5.073576153156106 9.358770528904731 0 0 0
632 211 1 0.5897 -4.626972478538852 -5.864145980525278 6.710285704605806 1 1 0
554 185 1 0.5897 -2.7822027602875883 -6.619433968808419 7.805480449018995 0 1 0
616 206 2 -1.1794 -7.310656075237092 -7.904764198019988 7.341595221921945 1 1 0
356 119 1 0.5897 1.1142521166190598 -7.106554870596412 10.072609976390837 0 0 0
404 135 1 0.5897 -4.940534652157022 -3.655804528366179 5.953282116276963 1 0 0
351 117 1 0.5897 -7.1485426994546035 -3.1772208761980423 10.57775394133588 0 0 0
357 119 1 0.5897 1.2008113413257 -7.183307509643599 8.563092869327772 0 0 0
241 81 2 -1.1794 -1.1094713268793512 -6.230116254472991 5.619476666505475 0 1 0
326 109 1 0.5897 -3.4650714387696535 -7.606940614175221 10.783408635532803 0 0 0
633 211 1 0.5897 -5.647188503155486 -6.039838573595366 5.605636800276668 1 1 0
652 218 2 -1.1794 -5.680877395512978 -5.607489077863409 12.613606359505793 0 0 0
780 260 1 0.5897 -7.6047561715980985 -4.01612052123163 15.217699572561454 0 0 0
779 260 1 0.5897 -7.276743376046907 -2.9764498195121014 14.167250810804529 0 0 0
778 260 2 -1.1794 -8.01272210477215 -3.406277777030251 14.603012082459585 0 0 0
768 256 1 0.5897 -9.575373309386789 -2.5562184848715743 14.765950619881956 0 0 0
654 218 1 0.5897 -6.036593498272633 -4.97896802115131 11.98542166350125 0 0 0
653 218 1 0.5897 -6.449278823245783 -6.059725771099796 12.961956982460924 0 0 0
740 247 1 0.5897 -10.802291638868368 -3.077681862885963 12.018392286504232 1 0 0
684 228 1 0.5897 -8.581052194578566 -6.342270034665217 14.173169926641371 0 0 0
682 228 2 -1.1794 -7.819707894113236 -6.735272172415378 13.746370803299502 0 0 0
663 221 1 0.5897 -8.711094575731746 -4.1368867226111234 11.650426736538051 0 0 0
662 221 1 0.5897 -8.966159771625795 -3.908742453181283 13.125190256158243 0 0 0
661 221 2 -1.1794 -9.383542670125948 -4.228858987271072 12.325435515653043 0 0 0
729 243 1 0.5897 -8.254910493969575 -6.959928198479348 12.021137832132691 1 0 0
767 256 1 0.5897 -11.067528492466396 -2.808895033819689 14.806064621196983 0 0 0
787 263 2 -1.1794 -4.552338259512739 -4.449332855329937 14.822043096064768 0 0 0
774 258 1 0.5897 -5.266993852942784 -2.410764441218924 12.944647580694802 0 0 0
802 268 2 -1.1794 -2.82810633398023 -2.268607626680004 14.826870984128055 0 0 0
788 263 1 0.5897 -5.158137476800559 -4.599906737300302 15.547736960456813 0 0 0
678 226 1 0.5897 -3.944558892197816 -6.190722304260579 12.419163358926815 0 0 0
718 240 2 -1.1794 0.12152239507070028 -6.802585036319858 13.7589187324132 0 0 0
698 233 1 0.5897 -1.2439919545782363 -4.107490439589778 13.20457337235058 0 0 0
657 219 1 0.5897 -0.16104232205191416 -6.931989969645047 11.917033326868383 0 0 0
789 263 1 0.5897 -5.022723380540498 -4.759907277637113 14.048368295931152 0 0 0
697 233 2 -1.1794 -1.7112627853472855 -4.304538275780953 12.392721340533393 0 0 0
667 223 2 -1.1794 -4.046741166229893 -2.9974247751745633 11.632035428518519 0 0 0
676 226 2 -1.1794 -3.1302424593479143 -6.669232351418193 12.263812481933135 0 0 0
677 226 1 0.5897 -2.4593497894342384 -5.988881921964408 12.206030729001332 0 0 0
699 233 1 0.5897 -1.0660557170399052 -4.153912319247432 11.70184225562032 0 0 0
668 223 1 0.5897 -3.285426463265014 -3.3538586585128805 12.089795076795884 0 0 0
816 272 1 0.5897 0.12798205558416953 -3.835729405636836 15.21857831922475 0 0 0
814 272 2 -1.1794 -0.34120555945908926 -3.2815546194859744 14.594929758910933 0 0 0
804 268 1 0.5897 -1.9450322082701685 -2.636762153986421 14.797599709298353 0 0 0
803 268 1 0.5897 -3.407071398488867 -3.027861058040507 14.758699209162208 0 0 0
795 265 1 0.5897 -2.870956654592903 -5.329292496147113 14.919248938975953 0 0 0
793 265 2 -1.1794 -2.0446695124802776 -5.763397664578143 15.131363805069215 0 0 0
720 240 1 0.5897 -0.5918448142232737 -6.511654710192024 14.32701424560654 0 0 0
766 256 2 -1.1794 -10.420392545092843 -2.1146514862596 14.681378069284449 0 0 0
689 230 1 0.5897 1.3309414130293131 -5.889155215188845 13.037816667960024 0 0 0
655 219 2 -1.1794 -0.34570483120107554 -7.313852806063768 11.05890442697332 0 0 0
794 265 1 0.5897 -1.6764099668968182 -5.242785997137354 15.845268870717527 0 0 0
739 247 2 -1.1794 -11.633155483562014 -2.836729364297044 11.608742136824967 1 0 0
727 243 2 -1.1794 -8.418021935854402 -7.234855607310055 11.118859681679588 1 0 0
758 253 1 0.5897 -9.446645861340356 -5.3184274522093276 15.942405568711827 0 0 0
669 223 1 0.5897 -4.236889495921256 -3.6385900673049676 10.947153729938778 0 0 0
1089 363 1 0.5897 -6.67994974157288 -4.534925666338902 17.362472106926898 0 0 0
1152 384 1 0.5897 -7.13045019894871 -3.9590720547593357 19.70305117149416 0 0 0
1225 409 2 -1.1794 -8.3778287784564 -3.3631954487197895 20.900654724550872 0 0 0
1227 409 1 0.5897 -9.205678683925365 -3.1004546284035346 20.49837102447097 0 0 0
1109 370 1 0.5897 -8.82614669376524 -3.3205230663501144 17.567086740266266 0 0 0
1108 370 2 -1.1794 -9.391824988283254 -4.092719553736378 17.572497429253207 0 0 0
1151 384 1 0.5897 -6.277184483945316 -5.19218623193604 19.495171558284724 0 0 0
1150 384 2 -1.1794 -6.432967936900131 -4.3127012412778996 19.15102700518972 0 0 0
1121 374 1 0.5897 -5.089629273006354 -3.4692510340945493 18.384431594598006 0 0 0
1087 363 2 -1.1794 -6.6866103651650635 -4.887956852714192 16.4727367507053 0 0 0
1088 363 1 0.5897 -6.905122928878188 -5.8133198981345595 16.58331493619341 0 0 0
1219 407 2 -1.1794 -10.637495693982675 -2.0710427119391372 20.14428805391103 0 0 0
1097 366 1 0.5897 -9.18912426231271 -5.665754748946284 18.442967715796584 0 0 0
1132 378 2 -1.1794 -1.1495924585805568 -6.606977536538915 18.62926231004688 0 0 0
1110 370 1 0.5897 -10.280044631299273 -3.739963006529184 17.519362439753397 0 0 0
1256 419 1 0.5897 -3.4666343072843446 -2.3761811491975813 20.73729312108858 0 0 0
1130 377 1 0.5897 -7.22943339319719 -1.8519327647828128 18.67775433708505 0 0 0
1129 377 2 -1.1794 -7.73982119486859 -1.880810138096189 17.868480747330796 0 0 0
1177 393 2 -1.1794 -0.9237116706087694 -6.071312062878273 21.351874455573174 0 0 0
1141 381 2 -1.1794 -8.684726318765216 -5.9578148799195585 21.434584008594626 0 0 0
1120 374 2 -1.1794 -4.360084224117681 -3.1004751491786777 17.886366460571107 0 0 0
1187 396 1 0.5897 1.5880596570807146 -5.398952430711813 19.352361886380898 0 0 0
1248 416 1 0.5897 -5.991075572067719 -1.6129662266586609 20.687440504052223 0 0 0
1179 393 1 0.5897 -0.8060506314537346 -5.135099730712783 21.190889803859893 0 0 0
1188 396 1 0.5897 0.7955562583741571 -4.129939392038283 19.583404934038914 0 0 0
1255 419 2 -1.1794 -2.7783926979471474 -2.1722691908009413 20.10401595094837 0 0 0
1165 389 2 -1.1794 -0.04837546092587175 -1.913938270545735 17.771836383772918 0 0 0
1261 421 2 -1.1794 -0.40510537526737345 -3.5170682731700573 20.737309227846797 0 0 0
1145 382 1 0.5897 -1.1625168074992729 -3.4302305056870948 17.44994070705571 0 0 0
1146 382 1 0.5897 -2.632360690288415 -3.7590023400355186 17.603232656933095 0 0 0
1263 421 1 0.5897 -1.1597036068906181 -3.115962654911222 20.30616787002864 0 0 0
1144 382 2 -1.1794 -1.7644719827809823 -4.162270510919837 17.584391717947398 0 0 0
1257 419 1 0.5897 -3.178200970563031 -2.344064867380099 19.251422520901844 0 0 0
1122 374 1 0.5897 -4.767788117961898 -2.463820923133616 17.299324134812043 0 0 0
1133 378 1 0.5897 -1.3332630239126484 -5.735019612809991 18.279749654391807 0 0 0
1142 381 1 0.5897 -8.872327656470135 -6.243953466192682 20.540588582490535 0 0 0
1143 381 1 0.5897 -8.618434262299521 -5.004909902996893 21.372690213010202 0 0 0
1262 421 1 0.5897 -0.28336418204262337 -3.0028535642582703 21.535475419725852 0 0 0
1166 389 1 0.5897 0.2968015859226867 -1.6723627476575373 18.631360084314263 0 0 0
1131 377 1 0.5897 -7.097866189964527 -1.7310053309994906 17.17439953151923 0 0 0
1123 375 2 -1.1794 0.9873896152474124 -4.976507716782855 16.386343830942202 0 0 0
1125 375 1 0.5897 1.2016289396920339 -4.705804963003654 17.27915653947828 0 0 0
1186 396 2 -1.1794 1.455245235211148 -4.516084059001432 19.00724031234283 0 0 0
1124 375 1 0.5897 0.9803528807025419 -5.933071162539468 16.420713301387696 0 0 0
68 23 1 0.5897 -11.33100942108362 -2.486084027439186 4.796707052081649 1 0 0
67 23 2 -1.1794 -10.653603672890275 -2.32184208628391 4.140625948409669 1 0 0
53 18 1 0.5897 -12.251035645646036 1.100064835704135 2.3923290432403848 1 0 0
307 103 2 -1.1794 -2.4870686269926043 -0.9338618956175306 1.1583047428303375 1 1 0
83 28 1 0.5897 -9.560062311870368 -0.762415318669813 4.189702619284947 1 0 0
107 36 1 0.5897 -9.154853898145978 1.5689828770587564 3.4451147214158846 1 0 0
54 18 1 0.5897 -11.413826878264183 -0.13936691736714835 2.1583593176010134 1 0 0
301 101 2 -1.1794 -8.065275896669508 -2.309203284916423 1.6456746627220202 1 1 0
98 33 1 0.5897 -11.840510166249443 0.3924721344870008 4.503919713844877 1 0 0
96 32 1 0.5897 -5.9903606799574876 -2.019115832880172 4.429919656004588 1 0 0
52 18 2 -1.1794 -12.069890814635732 0.23053943626307039 2.7491414664299305 1 0 0
90 30 1 0.5897 -3.8022063412981186 -0.40722789932985926 2.1558544074451857 1 0 0
69 23 1 0.5897 -11.08852923472925 -2.4779546488279944 3.302327449387891 1 0 0
292 98 2 -1.1794 -4.376169681493465 -3.405128833889618 1.969313042657636 1 1 0
258 86 1 0.5897 -12.49484748869939 -2.6779756865413367 1.3011016336873462 1 1 0
271 91 2 -1.1794 -10.187988752170993 -0.8480449457980708 0.9318692283234322 1 1 0
272 91 1 0.5897 -9.401097274271024 -1.2955052343194549 1.242944356325946 1 1 0
82 28 2 -1.1794 -8.89583955927557 -0.07794291623587313 4.271085215467776 1 0 0
84 28 1 0.5897 -8.065565484599464 -0.5302765906784863 4.121888535338506 1 0 0
94 32 2 -1.1794 -6.420045049043631 -1.5389353644223354 3.722118950576446 1 0 0
302 101 1 0.5897 -7.6416081968318625 -2.050385172028748 2.464088260778806 1 1 0
59 20 1 0.5897 -13.60272275064011 -0.846628003802163 3.336038179356268 1 0 0
95 32 1 0.5897 -5.708628118663218 -1.0754624752544402 3.2801045815165835 1 0 0
303 101 1 0.5897 -7.3682449650677135 -2.267434166554544 0.9909236658009332 1 1 0
105 35 1 0.5897 -3.271643746569297 -2.605121437980725 3.2439688643644855 1 0 0
103 35 2 -1.1794 -2.8622725431719465 -2.2522315080072532 4.034007459175205 1 0 0
294 98 1 0.5897 -4.690913172806886 -2.8766029230470043 1.2359721235107495 1 1 0
256 86 2 -1.1794 -12.017003824005968 -3.2024516263997977 1.943577399925381 1 1 0
104 35 1 0.5897 -3.554082134354714 -2.2786338150061525 4.695065055685779 1 0 0
26 9 1 0.5897 -4.153598780757632 0.4978443601980036 4.52953946307146 0 0 0
89 30 1 0.5897 -4.480929822412118 0.9400906696626645 2.282023807364246 1 0 0
88 30 2 -1.1794 -4.392274065590446 0.09329265338030446 2.719386441212956 1 0 0
99 33 1 0.5897 -11.632663096579943 1.6238187081365503 5.359883668735811 1 0 0
44 15 1 0.5897 -9.946417025014172 0.9066190199939115 0.4398518028683893 1 0 0
25 9 2 -1.1794 -4.207023443196224 0.8160610227743614 5.430753623818724 0 0 0
27 9 1 0.5897 -3.9847974759176195 1.7451969785107195 5.370786477554413 0 0 0
97 33 2 -1.1794 -11.835083694338653 0.6898010105913457 5.413789869376008 1 0 0
273 91 1 0.5897 -10.560517660257732 -1.442518139574644 0.2806103890682835 1 1 0
309 103 1 0.5897 -2.80388486896355 -1.5643766143692304 0.5114716469405501 1 1 0
1046 349 1 0.5897 -5.098439539969159 1.3255997684434693 0.2685656505790774 0 -1 1
443 148 1 0.5897 -8.158098450469112 1.7023311843553586 9.509230789377522 0 0 0
415 139 2 -1.1794 -8.646860712397206 1.7704039465640395 6.262583921088703 1 0 0
401 134 1 0.5897 -11.10647600088998 -1.408451037756584 7.496302676931373 1 0 0
400 134 2 -1.1794 -10.3854551539326 -0.9019153038880603 7.122350999204863 1 0 0
526 176 2 -1.1794 -12.61274292892762 1.3379437663242708 9.11057150221719 1 0 0
527 176 1 0.5897 -11.886954150742197 1.7252464703238672 8.621172000090258 1 0 0
442 148 2 -1.1794 -7.510226330335343 2.407008655600709 9.506669219183246 0 0 0
426 142 1 0.5897 -8.796762564444311 -1.8036884444896693 7.101998376532886 1 0 0
537 179 1 0.5897 -9.64236938803412 -0.034216828197314086 8.566381293722383 1 0 0
535 179 2 -1.1794 -9.14496504762915 0.203279521771476 9.348982671838252 1 0 0
536 179 1 0.5897 -9.802497853227768 0.2642149287430975 10.0419670569657 1 0 0
528 176 1 0.5897 -12.193613431896424 0.8798300592168058 9.839033031619078 1 0 0
435 145 1 0.5897 -7.5602114928447515 -0.98171959973679 9.650628808045042 0 0 0
424 142 2 -1.1794 -7.903844035463836 -2.0937884543620484 6.9155391946436975 1 0 0
402 134 1 0.5897 -10.812135560844636 -0.2601068141250735 6.5547202183960325 1 0 0
433 145 2 -1.1794 -6.882326605491869 -1.4540271144782633 10.133927446216827 0 0 0
425 142 1 0.5897 -7.381920332160837 -1.2915796159406412 6.934642041981627 1 0 0
360 120 1 0.5897 -5.503707617130731 -1.8419817794314657 9.057274681474855 0 0 0
464 155 1 0.5897 -2.1046564676163335 0.059688473542943044 10.203395044444115 0 0 0
456 152 1 0.5897 -4.545133930429097 0.4982389097616444 9.908418128029536 0 0 0
338 113 1 0.5897 -5.875992567313782 0.2796132852118127 7.889591046145156 0 0 0
337 113 2 -1.1794 -6.3458000839854405 0.19781803469425263 7.059618883438522 0 0 0
434 145 1 0.5897 -6.680416118586006 -0.8881137901458764 10.879101197923552 0 0 0
455 152 1 0.5897 -4.505419276551857 1.6355056388667641 8.90995682179667 0 0 0
328 110 2 -1.1794 -2.7397951460492687 -0.8109729945827695 7.255126507083203 0 0 0
330 110 1 0.5897 -3.2469177711555295 -0.285894423019073 6.636012158191511 0 0 0
416 139 1 0.5897 -7.89229407797382 1.3624462874209478 6.687299119344628 1 0 0
329 110 1 0.5897 -3.396754217062022 -1.3073400105703818 7.7433092210422245 0 0 0
339 113 1 0.5897 -5.674459540977134 0.32859717078392947 6.389920823993621 0 0 0
444 148 1 0.5897 -6.669657705004961 1.960600533703989 9.60845372839728 0 0 0
405 135 1 0.5897 -5.025680748989835 -2.311944354310679 6.645247046910289 1 0 0
454 152 2 -1.1794 -5.110870032554382 1.071527758995293 9.39125703807999 0 0 0
358 120 2 -1.1794 -4.730879257884461 -2.1740625694070577 8.600415922083524 0 0 0
411 137 1 0.5897 -13.347213421344943 0.19100293808602942 6.299723110373554 1 0 0
522 174 1 0.5897 -9.79457640241349 2.3092757913684245 7.388952646884345 1 0 0
410 137 1 0.5897 -13.551415279598675 0.5187689646223728 7.763597647746895 1 0 0
403 135 2 -1.1794 -4.907668659713797 -2.7141419275767547 5.78465845200582 1 0 0
516 172 1 0.5897 -14.12055525994701 2.2972871174850695 9.440726767076834 1 0 0
448 150 2 -1.1794 -3.2566886540532822 2.4392489942703808 7.977677551211279 0 0 0
417 139 1 0.5897 -8.899236427088942 1.1524422446509366 5.576477942425125 1 0 0
772 258 2 -1.1794 -5.931989474515587 -2.0562455071744097 13.534873501813921 0 0 0
792 264 1 0.5897 -11.758414314360127 0.7163583852851865 14.342808406299385 0 0 0
819 273 1 0.5897 -5.626271520574278 -0.4124321769186352 15.982518808875058 0 0 0
762 254 1 0.5897 -9.410065878278502 2.3083505776703674 11.912723059368538 0 0 0
837 279 1 0.5897 -11.298073899952701 0.13814691504852483 11.86852735150334 1 0 0
790 264 2 -1.1794 -11.098321032824787 0.41392185235516266 13.719043287603409 0 0 0
888 296 1 0.5897 -10.704440301274293 3.300840354079277 15.223539985968994 0 0 0
791 264 1 0.5897 -10.868166450071781 -0.4649191533314969 14.020482400179649 0 0 0
924 308 1 0.5897 -3.0039500814522233 2.961224370612575 15.279496915656527 0 0 0
761 254 1 0.5897 -9.713504240349875 1.4008362533774132 13.085879910924579 0 0 0
760 254 2 -1.1794 -8.987786344538637 1.7838116417673398 12.592964987269296 0 0 0
818 273 1 0.5897 -5.720790563179922 -1.7339298685600326 15.249876073119093 0 0 0
1137 379 1 0.5897 -2.6102462073307002 -1.0133525560081953 16.256970928962748 0 0 0
896 299 1 0.5897 -8.094406152280126 2.5650754569472234 15.313648011573179 0 0 0
769 257 2 -1.1794 -12.541796048649354 2.9609227808848804 12.370751145607159 0 0 0
897 299 1 0.5897 -7.838235849859907 2.4750446208016026 13.824250501846022 0 0 0
765 255 1 0.5897 -3.536501333276311 -0.051116016962460264 11.982675321386097 0 0 0
895 299 2 -1.1794 -7.414889975204364 2.699357033419627 14.652949562035758 0 0 0
807 269 1 0.5897 -4.188610931446633 2.7817975409842006 11.547303981286648 0 0 0
786 262 1 0.5897 -7.47311969313391 0.7219865394098228 12.305216384535434 0 0 0
826 276 2 -1.1794 -3.2349777607098558 0.2650086535606082 13.767209354608141 0 0 0
828 276 1 0.5897 -3.9192322466070895 0.564910366177962 14.365651040286355 0 0 0
805 269 2 -1.1794 -4.824660352659901 2.6916643262075617 12.256959853192336 0 0 0
806 269 1 0.5897 -4.293390752678862 2.6568945423084944 13.052434448881428 0 0 0
903 301 1 0.5897 -5.908910131064385 1.6266720913834618 15.117065049937837 0 0 0
773 258 1 0.5897 -6.170458169825427 -1.213350147628221 13.149055891804386 0 0 0
901 301 2 -1.1794 -5.184711922780736 1.1650973622195835 15.539754496535778 0 0 0
827 276 1 0.5897 -3.0382522248904706 -0.626421099785853 14.055058065009952 0 0 0
785 262 1 0.5897 -5.996523651258463 1.045403836086905 12.221060568687921 0 0 0
817 273 2 -1.1794 -5.753351539694162 -1.350223855681592 16.126238928137735 0 0 0
784 262 2 -1.1794 -6.607777178443886 0.3129044562173888 12.299249883785862 0 0 0
763 255 2 -1.1794 -3.5854797912736824 -0.3978854941473049 11.0918016885244 0 0 0
835 279 2 -1.1794 -11.33097879889295 -0.12917444374540565 10.949966716805582 1 0 0
1101 367 1 0.5897 -10.14142784531707 -1.0330046361181413 16.22569699439328 0 0 0
764 255 1 0.5897 -3.7549159113889132 -1.3328966685296786 11.207168788815421 0 0 0
797 266 1 0.5897 -1.820285865739601 1.112598347202022 13.056601333061282 0 0 0
836 279 1 0.5897 -11.485116471168197 -1.0734202976741098 10.98015392625276 1 0 0
1204 402 2 -1.1794 -11.853972664969657 0.48764988113334873 18.620536762447138 0 0 0
1285 429 2 -1.1794 -4.049752141163532 0.9178959468361612 21.546077331423668 0 0 0
1253 418 1 0.5897 -4.239653131133238 3.3708412627254862 17.82630396972823 0 0 0
1047 349 1 0.5897 -4.275528867964187 3.6604232264148795 20.603431555911424 0 -1 0
1252 418 2 -1.1794 -4.882420788332154 2.6615375434751805 17.833160065519202 0 0 0
1247 416 1 0.5897 -5.833438553039794 -0.5195150301421343 19.6523593202611 0 0 0
1250 417 1 0.5897 -11.535505192202537 0.6242752429333294 20.649320138411923 0 0 0
1229 410 1 0.5897 -7.989980304193805 3.5781159209158666 18.361825295565136 0 0 0
1287 429 1 0.5897 -3.869078351627106 1.8505517516324872 21.428747089144032 0 0 0
1216 406 2 -1.1794 -12.546001200319665 2.9955695728272556 17.795012098755784 0 0 0
1206 402 1 0.5897 -11.16107967710078 0.23334425794655544 18.01102281705712 0 0 0
1099 367 2 -1.1794 -9.867099721255249 -0.35899242596908465 16.847601618191668 0 0 0
1100 367 1 0.5897 -9.109265636797279 -0.7376554928741577 17.29311162645784 0 0 0
1009 337 2 -1.1794 -11.142397059017107 3.6363113444526416 20.71923195845297 0 -1 0
1260 420 1 0.5897 -9.850835521869518 3.0112521402833465 19.691117467738298 0 0 0
1259 420 1 0.5897 -9.150353755669926 1.6817353095206649 19.508006984893786 0 0 0
1258 420 2 -1.1794 -9.146798022048046 2.5879420676238833 19.199797017822608 0 0 0
1236 412 1 0.5897 -8.126164360332414 -0.4473177527433574 20.258017731408806 0 0 0
1235 412 1 0.5897 -9.63342043666238 -0.5827716458266394 20.21576017284747 0 0 0
1234 412 2 -1.1794 -8.93344502277834 0.06603484520436353 20.289132306148367 0 0 0
1197 399 1 0.5897 -9.486249663640734 2.585415727445799 17.35787442585363 0 0 0
1246 416 2 -1.1794 -6.491785896291883 -1.0642065366167586 20.08384746428713 0 0 0
1295 432 1 0.5897 -1.2649047886180078 1.7736050519647328 19.530188837725753 0 0 0
1271 424 1 0.5897 -1.8922627974025392 -0.6015628233469581 20.517377036988844 0 0 0
1217 406 1 0.5897 -11.826120097890891 3.620762391965318 17.710058125031477 0 0 0
1218 406 1 0.5897 -13.327247664250683 3.5405058427697647 17.88938790417554 0 0 0
1205 402 1 0.5897 -12.14771426216807 1.3428561663128669 18.30663809245627 0 0 0
1045 349 2 -1.1794 -3.467672480328913 3.42327126432151 21.058762188021813 0 -1 0
1240 414 2 -1.1794 -4.170920644013005 0.2533144124642597 18.952293563716097 0 0 0
1272 424 1 0.5897 -0.43830234458862094 -0.20254719623002515 20.3802210069832 0 0 0
1249 417 2 -1.1794 -11.584411429277997 1.0704528813460854 21.494802828104834 0 0 0
1242 414 1 0.5897 -3.498498557354287 -0.08991833179960373 18.36380982125722 0 0 0
1241 414 1 0.5897 -4.476604075225273 1.0540872959865304 18.526253871233415 0 0 0
1286 429 1 0.5897 -4.0690441824054115 0.5634555431810107 20.657087031662243 0 0 0
1254 418 1 0.5897 -5.7300433119446605 3.105907341533266 17.849789990504505 0 0 0
1136 379 1 0.5897 -1.5185752383547264 -1.019193520673916 17.305844972562895 0 0 0
1135 379 2 -1.1794 -2.3090292423537946 -0.550172423682266 17.03866200729223 0 0 0
1270 424 2 -1.1794 -1.3046174449016696 0.15135261796466892 20.581422494299822 0 0 0
1296 432 1 0.5897 -2.1503703365278497 2.9557822741799775 19.86224714634729 0 0 0
1196 399 1 0.5897 -9.565153923084079 1.3188618524043108 16.53224114259058 0 0 0
1195 399 2 -1.1794 -9.52541145073136 2.2720507301962414 16.454231183632775 0 0 0
1011 337 1 0.5897 -11.96472966247082 3.9464017079467837 20.340007488238292 0 -1 0
1233 411 1 0.5897 -1.9050551502707886 2.5649578728019193 17.497214704636047 0 0 0
1251 417 1 0.5897 -11.451906243191916 1.9952108306099579 21.28618644783283 0 0 0
1232 411 1 0.5897 -2.0357473322378166 1.2853897837178536 16.69866067279077 0 0 0
1231 411 2 -1.1794 -2.035894629244577 2.2382007370892065 16.607044522472 0 0 0
866 289 1 0.5897 -12.60512544947801 1.8015879527598706 16.3221636122962 0 0 0
902 301 1 0.5897 -4.971844043820053 1.7010527259112944 16.303790207635927 0 0 0
40 14 2 -1.1794 -15.026380779283553 3.6351520295531206 1.8162201519975858 1 0 0
177 59 1 0.5897 -14.11576780213483 4.408575714420627 3.285622862574658 1 0 0
42 14 1 0.5897 -15.338007287061636 4.274586763368449 1.1757501686881442 1 0 0
55 19 2 -1.1794 -13.209850689195894 6.238269231763885 0.9640976284979488 1 0 0
56 19 1 0.5897 -12.3961044162195 5.821315525117592 1.247208680121662 1 0 0
66 22 1 0.5897 -13.346795790178 3.042138969086629 1.4497962217871272 1 0 0
65 22 1 0.5897 -11.877465849771095 3.401713699595053 1.5113229431118034 1 0 0
64 22 2 -1.1794 -12.471106186308168 2.6578816865891497 1.4082910261072483 1 0 0
191 64 1 0.5897 -12.56452897901859 6.172832956134959 3.995888129950266 1 0 0
183 61 1 0.5897 -12.0968327340361 3.693129915141519 4.298190567969375 1 0 0
181 61 2 -1.1794 -11.353987887774851 3.301852641467855 4.757825666941311 1 0 0
176 59 1 0.5897 -14.254912740767125 4.6649180276656885 4.771214724506932 1 0 0
175 59 2 -1.1794 -13.64097415083519 4.752987615030639 4.042093071059665 1 0 0
108 36 1 0.5897 -10.096741273901733 2.7448513098422147 3.5934789286829942 1 0 0
85 29 2 -1.1794 -10.964264741267264 4.910108114327146 1.7690261830701486 1 0 0
162 54 1 0.5897 -14.44917792323383 6.704820630400084 2.2400246860700026 1 0 0
190 64 2 -1.1794 -12.04095029066308 6.9741907747191405 3.9966164203245818 1 0 0
106 36 2 -1.1794 -9.364887863437946 2.4229306772879706 3.0671459036757325 1 0 0
198 66 1 0.5897 -6.847627118103517 6.73731593640049 2.200914220258742 1 0 0
45 15 1 0.5897 -9.669066517801344 2.126071405621129 1.293143621750835 1 0 0
43 15 2 -1.1794 -9.722093927195223 1.835425948388476 0.382644175387685 1 0 0
192 64 1 0.5897 -11.137386174654065 6.67047437011383 4.0834317103186 1 0 0
86 29 1 0.5897 -10.55623616956265 5.198187000118365 2.5856130117077343 1 0 0
87 29 1 0.5897 -10.285450849160862 5.032533366648661 1.1053143778825996 1 0 0
111 37 1 0.5897 -4.571862554561481 3.849101180315259 4.616604040368259 0 0 0
203 68 1 0.5897 -8.892812417816787 6.3602153510001465 3.4131571065000825 1 0 0
202 68 2 -1.1794 -9.597127285032752 5.95163412767462 3.916449931874728 1 0 0
102 34 1 0.5897 -5.709027575982767 2.9231801594583207 1.5355900442816144 1 0 0
78 26 1 0.5897 -7.781358985353878 4.425235754287405 1.3661701794219223 1 0 0
212 71 1 0.5897 -6.656319262531076 4.806575227800593 4.842286524553434 1 0 0
213 71 1 0.5897 -6.437868959810143 4.546516902184475 3.3669193635772667 1 0 0
211 71 2 -1.1794 -6.001536731352093 4.88564002214768 4.148524329217659 1 0 0
100 34 2 -1.1794 -4.833304103110508 2.536856553254836 1.527022399636203 1 0 0
204 68 1 0.5897 -9.148418576617498 5.360527750556431 4.520958867530719 1 0 0
76 26 2 -1.1794 -7.335953994488188 3.8489275084081296 1.9871891210122126 1 0 0
77 26 1 0.5897 -8.04374943608555 3.382472540824022 2.431875369035636 1 0 0
91 31 2 -1.1794 -5.613140503737846 6.098088233682184 1.0383718348104751 1 0 0