#include		in.partitions
include		in.temp
variable        temperature equal 115.49
variable	tempDamp equal 100.0
include		in.pressure
variable        pressure equal 7362.8
variable        pressureDamp equal 1000.0 # This is 1 ps
include		in.seed
variable        seed equal 745823

units		real
atom_style	full
box tilt large
read_restart	restart.lmp.${pid}
read_restart	restart.lmp.0
Reading restart file ...
  restart file = 30 Jul 2021, LAMMPS = 30 Jul 2021
  restoring atom style full from restart
  triclinic box = (-10.565065 -9.1702693 0.26568891) to (12.545065 12.160267 21.594310) with tilt (-9.0806010 1.8825664 2.8955303)
  2 by 4 by 4 MPI processor grid
  restoring pair style lj/cut/tip4p/long/omp from restart
  restoring bond style harmonic/omp from restart
  restoring angle style harmonic/omp from restart
  1296 atoms
  864 bonds
  432 angles
Finding 1-2 1-3 1-4 neighbors ...
  special bond factors lj:    0        0        0       
  special bond factors coul:  0        0        0       
     2 = max # of 1-2 neighbors
     1 = max # of 1-3 neighbors
     1 = max # of 1-4 neighbors
     2 = max # of special neighbors
  special bonds CPU = 0.002 seconds
  read_restart CPU = 0.008 seconds
include 	in.setup
variable	out_freq equal 1000
variable	out_freq2 equal 10000
variable	out_freq3 equal 1000

timestep	2.0

neigh_modify    delay 7 every 1

include		in.tip4p
# This is TIP4P/Ice

# create groups ###
group ox type 2
432 atoms in group ox
group hy type 1
864 atoms in group hy

# set charges - beside manually ###
set group ox charge -1.1794
Setting atom values ...
  432 settings made for charge
set group hy charge 0.5897
Setting atom values ...
  864 settings made for charge

# ### TIP3P Potential Parameters ###
pair_style lj/cut/tip4p/long/omp 2 1 1 1 0.1577 8.5
pair_coeff 1 1*2 0.000 0.000
pair_coeff 2 2 0.21084 3.1668
bond_style  harmonic
bond_coeff  1 450 0.9572
angle_style harmonic
angle_coeff 1 55 104.52
kspace_style pppm/tip4p/omp 1.0e-5
pair_modify tail yes

thermo          ${out_freq}
thermo          1000
thermo_style    custom step temp pe etotal epair emol press lx ly lz vol pxx pyy pzz pxy pxz pyz enthalpy

restart 	${out_freq3} restart.lmp.${pid} restart2.lmp.${pid}
restart 	1000 restart.lmp.${pid} restart2.lmp.${pid}
restart 	1000 restart.lmp.0 restart2.lmp.${pid}
restart 	1000 restart.lmp.0 restart2.lmp.0


include         in.dump
dump            myDump all atom ${out_freq2} dump.water.${pid}
dump            myDump all atom 10000 dump.water.${pid}
dump            myDump all atom 10000 dump.water.0
dump            myDump2 all dcd ${out_freq2} dump.dcd
dump            myDump2 all dcd 10000 dump.dcd
dump_modify     myDump append yes
dump_modify     myDump2 append yes


variable natoms 	equal  "count(all)"                        # NUMBER ATOMS
variable H      	equal  "enthalpy/v_natoms"                 # ENTHALPY-per-atom
variable Vol      	equal  "vol/v_natoms"                 # volume-per-atom
fix AVG all 		ave/time ${out_freq} 1 ${out_freq} v_Vol v_H file vol_enthalpy.dat
fix AVG all 		ave/time 1000 1 ${out_freq} v_Vol v_H file vol_enthalpy.dat
fix AVG all 		ave/time 1000 1 1000 v_Vol v_H file vol_enthalpy.dat


timer           timeout 10:00:00 every 1000
New timer settings: style=normal  mode=nosync  timeout=10:00:00

fix 		1 all shake 1e-6 200 0 b 1 a 1
       0 = # of size 2 clusters
       0 = # of size 3 clusters
       0 = # of size 4 clusters
     432 = # of frozen angles
  find clusters CPU = 0.001 seconds
fix             2 all nph tri ${pressure} ${pressure} ${pressureDamp}
fix             2 all nph tri 7362.8 ${pressure} ${pressureDamp}
fix             2 all nph tri 7362.8 7362.8 ${pressureDamp}
fix             2 all nph tri 7362.8 7362.8 1000
fix             3 all temp/csvr ${temperature} ${temperature} ${tempDamp} ${seed}
fix             3 all temp/csvr 115.49 ${temperature} ${tempDamp} ${seed}
fix             3 all temp/csvr 115.49 115.49 ${tempDamp} ${seed}
fix             3 all temp/csvr 115.49 115.49 100 ${seed}
fix             3 all temp/csvr 115.49 115.49 100 745823


run             250000
PPPM initialization ...
  extracting TIP4P info from pair style
  using 12-bit tables for long-range coulomb (../kspace.cpp:340)
  G vector (1/distance) = 0.36828562
  grid = 30 40 32
  stencil order = 5
  estimated absolute RMS force accuracy = 0.0043588167
  estimated relative force accuracy = 1.3126447e-05
  using double precision FFTW3
  3d grid and FFT values/proc = 7752 1200
Last active /omp style is kspace_style pppm/tip4p/omp
Neighbor list info ...
  update every 1 steps, delay 7 steps, check yes
  max neighbors/atom: 2000, page size: 100000
  master list distance cutoff = 10.8154
  ghost atom cutoff = 10.8154
  binsize = 5.4077, bins = 7 5 4
  1 neighbor lists, perpetual/occasional/extra = 1 0 0
  (1) pair lj/cut/tip4p/long/omp, perpetual
      attributes: half, newton on, omp
      pair build: half/bin/newton/tri/omp
      stencil: half/bin/3d/tri
      bin: standard
Per MPI rank memory allocation (min/avg/max) = 10.65 | 10.66 | 10.66 Mbytes
Step Temp PotEng TotEng E_pair E_mol Press Lx Ly Lz Volume Pxx Pyy Pzz Pxy Pxz Pyz Enthalpy 
 7500000    122.06043   -6706.1598   -6392.1668   -6706.1598            0    8234.4289    23.110131    21.330537    21.328621    10513.976    7607.1655    7664.7642    9431.3569    599.92504   -517.93775   -593.63926   -5129.5361 
 7501000    114.85302   -6710.8664    -6415.414   -6710.8664            0     7975.749    23.055739    21.263882    21.464431    10523.034    8660.7711    7690.7998     7575.676   -644.60843   -18.384132   -637.81079   -5191.3945 
 7502000     114.7171   -6713.5891   -6418.4864   -6713.5891            0    6455.0362    23.104517    21.332152    21.450853    10572.462    6864.3202    5519.2292    6981.5593   -575.31421     480.4897    938.59688   -5423.1939 
 7503000    112.67163   -6711.6958   -6421.8549   -6711.6958            0    6540.9616    23.070311    21.249048    21.543485    10561.093    7088.0632    6465.6246    6069.1972   -638.14004    649.43814   -51.995913   -5414.3983 
 7504000    115.58047   -6735.2458   -6437.9221   -6735.2458            0     7117.022    23.098746    21.354039    21.390927    10551.107    6873.1074    6323.4544    8154.5042   -185.78143   -126.60408    534.27029   -5342.7755 
 7505000    114.80802    -6718.104   -6422.7674    -6718.104            0    6972.3198    23.119783    21.321915    21.432919     10565.53    7269.8736    6734.2121    6912.8738    87.549444   -516.88226   -1323.4065   -5348.4206 
 7506000    117.51172   -6711.0981   -6408.8063   -6711.0981            0    7714.7437    23.122162    21.228785    21.458421    10532.982    7615.9008    8197.7694    7330.5607   -301.19055   -28.548289   -378.15233   -5223.7235 
 7507000    120.84877   -6732.7852   -6421.9091   -6732.7852            0    7443.2644    23.094291    21.230478    21.477211    10530.337    7276.8835     7738.565    7314.3446    814.55024     580.0214      926.281    -5278.816 
 7508000     115.0391   -6704.8263   -6408.8952   -6704.8263            0    8691.4563     22.96868    21.240461    21.507356    10492.694    9776.8938    8145.3146    8152.1607   -280.70956    327.20575   -433.28149   -5078.8836 
 7509000    122.04586   -6713.4853   -6399.5297   -6713.4853            0    7074.4402    23.108273    21.334026    21.393123    10546.649    6775.4547      7816.89    6630.9759   -483.26974   -1010.2021   -713.51155   -5311.3956 
 7510000     113.6335   -6705.6988   -6413.3836   -6705.6988            0    7105.1892    23.093031    21.265267    21.507047    10561.669      6906.06    7059.2229    7350.2846    1758.6429   -551.49062    -406.3594   -5318.9634 
 7511000    115.01304   -6714.6341     -6418.77   -6714.6341            0      7364.05    23.015215    21.385943    21.453355    10559.386    8037.8755    5927.6755    8126.5991    309.68412    -548.9607    1227.4835   -5284.7224 
 7512000    119.15662   -6705.3967   -6398.8736   -6705.3967            0    7340.2338    23.022953    21.318577    21.493302     10549.27    8384.6978    6405.9826    7230.0211   -231.84212    188.31749   -44.575617   -5269.5766 
 7513000    116.79582   -6706.4319   -6405.9818   -6706.4319            0    7182.9782    23.030145     21.39773    21.403842     10547.66    7987.8826    5839.7907    7721.2613     146.5245   -155.44693    24.643462   -5301.0473 
 7514000    112.01107   -6718.1553   -6430.0136   -6718.1553            0    7638.0726    23.008999    21.365839    21.415541    10528.021    7559.3594    7131.2793     8223.579    354.98738    948.26009    77.652152    -5257.261 
 7515000    115.78107   -6708.8653   -6411.0255   -6708.8653            0    8435.3215    22.979736    21.287835    21.469937    10502.853    10317.969    6651.9068    8336.0881   -638.79962   -151.55499     179.0025   -5118.9592 
 7516000    116.37789   -6719.1068   -6419.7318   -6719.1068            0    7551.7818    23.038829    21.354407    21.426633    10541.486     7450.805    6705.9969    8498.5435    -46.52144    256.93649    392.43927   -5258.7453 
 7517000    119.82124   -6727.1541   -6418.9213   -6727.1541            0    6619.8371    22.997834    21.346101    21.491187    10550.326    7090.6526    5956.4753    6812.3834    120.02194     496.9228    169.74982   -5400.3555 
 7518000    112.10209   -6722.2156   -6433.8398   -6722.2156            0    7305.4713    22.996913    21.350119    21.447728    10530.552    7976.0532    6754.7223    7185.6382   -10.001277   -353.83768   -24.824328   -5311.8853 
 7519000    115.48287   -6718.9033   -6421.8306   -6718.9033            0    7538.4568    23.120267    21.265242    21.455679    10548.858    7188.4451    7336.6476    8090.2778    877.42478    4.3370358   -218.78537   -5262.0822 
 7520000    113.51587   -6715.3119   -6423.2992   -6715.3119            0    7488.9007    23.109643    21.224486    21.475399    10533.475    7571.1353    7826.8435    7068.7234    814.28655   -474.87903   -226.11107   -5272.8549 
 7521000    113.28945     -6725.38   -6433.9498     -6725.38            0     7622.809    23.170234    21.101997    21.550564    10536.894    7446.0927    8057.3598    7364.9746    1100.0175   -220.91887    633.23251   -5262.5543 
 7522000    115.09431    -6712.106   -6416.0329    -6712.106            0    6372.8882    23.231007    21.127284    21.529374    10566.791    6609.2578    5696.5114    6812.8955      -260.24    283.12701    563.66152   -5433.9339 
 7523000    113.33939   -6716.7219   -6425.1632   -6716.7219            0    6490.1968    23.182199    21.253519    21.442091    10564.589    6946.4829    5936.1416    6587.9659   -96.712693   -491.73234    433.67577   -5425.1946 
 7524000    123.33513   -6709.9463   -6392.6742   -6709.9463            0     6632.642    23.213421    21.132727    21.577187    10584.968    6799.4117    6299.2379    6799.2763   -208.84425    310.40476    143.71401   -5368.7873 
 7525000    118.31652   -6704.5226   -6400.1606   -6704.5226            0    7060.4408    23.281198    21.159597    21.440093    10561.835    6733.9044    7477.0802    6970.3378    376.64905    157.47314    678.35235    -5312.616 
 7526000    119.95826   -6709.7356   -6401.1503   -6709.7356            0    7760.5658    23.146601    21.111564    21.560012    10535.536    8001.3703    8259.0192    7021.3079    872.92515   -303.80999    176.18756   -5208.7395 
 7527000    120.38782   -6714.0801   -6404.3898   -6714.0801            0    8200.8223    23.215037    21.133491    21.421859    10509.881    7185.8655      9198.37    8218.2315   -117.22606    332.90918   -661.26371   -5147.4019 
 7528000    115.38339   -6730.6665   -6433.8498   -6730.6665            0    7495.2271    23.203457    21.180991     21.41458    10524.671    7843.5254    7569.3578    7072.7982    455.02051   -1493.7107   -176.56905   -5283.3959 
 7529000    112.04249   -6720.7069   -6432.4844   -6720.7069            0    6730.9136    23.163501    21.166144    21.551522    10566.323    6838.5762    6494.6511    6859.5133    360.73597    505.15964    1061.9361   -5395.2574 
 7530000    117.86051   -6698.0245   -6394.8355   -6698.0245            0    8338.8659    23.125368    21.223231    21.404405    10505.176    9176.3273    7054.7569    8785.5134   -1096.7028   -862.74071   -5.5302909   -5117.2611 
 7531000    116.17958   -6697.9263   -6399.0614   -6697.9263            0    8497.8798    23.119629    21.223413    21.443577    10521.879     8090.611    8558.0895    8844.9391    259.94442   -140.12296   -615.06619   -5095.0548 
 7532000    119.48314   -6713.7307   -6406.3676   -6713.7307            0    7814.2512    23.105582    21.226238    21.466788     10528.27    7940.2541    7572.4366    7930.0629   -890.45446   -370.56081    412.94753    -5206.536 
 7533000    114.18744   -6709.4831   -6415.7429   -6709.4831            0    7731.0033    23.117398    21.230878    21.434715    10520.215    7152.7542    7753.4854    8286.7702    330.66313    28.786293    1107.5167   -5229.6017 
 7534000    113.08962   -6719.1845   -6428.2684   -6719.1845            0    6405.9531    23.084137    21.301971    21.518243    10581.329    6717.3169    5977.4567    6523.0857   -172.08714   -92.781375   -10.483222   -5439.7155 
 7535000    116.41786   -6729.5676   -6430.0898   -6729.5676            0    7050.7562    23.130657    21.283076      21.4448    10557.093    6492.4051    7802.2051    6857.6586   -213.79235    104.54155   -98.612882   -5344.5245 
 7536000    113.59675   -6723.6565   -6431.4358   -6723.6565            0    6509.8669    23.053516    21.356177    21.471379    10571.111    6263.6097    6881.9178    6384.0732    77.811166    447.10885   -154.49196   -5427.8174 
 7537000    115.89378   -6711.4703   -6413.3407   -6711.4703            0    7249.8947    22.991667     21.36158    21.457185    10538.446    7663.4983    7250.6758    6835.5099    555.03339   -416.91898   -249.61543   -5299.0868 
 7538000    113.35473   -6714.3647   -6422.7666   -6714.3647            0    6340.7889    23.122216     21.33131    21.461962    10585.622    6159.0721    6418.1824    6445.1123   -26.606878    -375.7512   -546.69507   -5443.8728 
 7539000    108.14511   -6697.0779   -6418.8812   -6697.0779            0    6865.1197    22.948743    21.431149    21.455391    10552.146    7858.1804    5239.7772    7497.4015   -745.46499     585.0785    844.71212   -5362.3927 
 7540000    111.13447   -6718.7856    -6432.899   -6718.7856            0    5235.3282    23.080592    21.402408     21.52275    10631.814    6120.4187    4987.5342    4598.0318    438.92633    189.53601   -336.90106   -5621.1399 
 7541000    115.44809   -6724.9753   -6427.9921   -6724.9753            0    6791.6156    23.035793    21.308561    21.463924    10535.773     6577.059    6947.9952    6849.7928   -958.58792    401.92645   -246.64033    -5384.437 
 7542000    116.64091   -6723.0029   -6422.9512   -6723.0029            0     6954.685    23.105605     21.28724    21.443917    10547.288    7057.0622     6213.439    7593.5537    589.71928    385.76798   -274.53183    -5353.172 
 7543000     115.4438   -6706.3847   -6409.4126   -6706.3847            0     7493.729    23.095997    21.274633    21.429664    10529.655    6637.9482    8673.1107    7170.1281    755.57594    644.23324   -752.84571    -5258.644 
 7544000    116.26588   -6714.1296   -6415.0427   -6714.1296            0     7138.121      23.1443    21.241325      21.4808    10560.296    8169.8077    6368.3175    6876.2378    191.19885   -1068.3133   -270.41208   -5315.6929 
 7545000    110.55489   -6728.4115   -6444.0158   -6728.4115            0    8170.0568    23.142547    21.213361    21.383035    10497.599    7562.5404    8065.1672    8882.4628    141.08011    108.34777     157.2252   -5193.2069 
 7546000    115.89824   -6712.4002    -6414.259   -6712.4002            0    7072.7873    23.197735     21.16981     21.50976    10563.263    6112.4505    8111.5152    6994.3963   -224.33267    438.00283   -469.91101   -5324.6653 
 7547000    118.98258   -6731.0846   -6425.0092   -6731.0846            0    8279.6093     23.20463    21.150909    21.396289    10501.278    7678.5856     8935.604    8224.6383    524.97609   -611.31546   -94.868896    -5156.984 
 7548000    115.77826   -6706.6126   -6408.7801   -6706.6126            0    7520.0246    23.153816    21.174915    21.504299    10543.129    7532.3355    8654.0893     6373.649   -422.89986   -37.331112   -405.69727   -5252.4956 
 7549000    116.39195   -6705.1975   -6405.7863   -6705.1975            0    7693.6516    23.278859    21.086434    21.439957    10524.192    6486.6249    8353.2559    8241.0741     462.3433    311.28066   -293.93149   -5224.9297 
 7550000    117.85884     -6717.67   -6414.4853     -6717.67            0    7860.3002    23.228115    21.196305     21.37485    10523.912    6945.7646     8243.444    8391.6919   -182.68266   -542.89168   -90.094484   -5208.0828 
 7551000    119.74367   -6719.8539   -6411.8206   -6719.8539            0    6496.3054     23.24308    21.154152    21.500888    10571.721    6295.1352    6520.1368    6673.6442   -1378.7938    971.69801   -147.96862   -5410.2352 
 7552000    114.16921     -6724.93   -6431.2367     -6724.93            0     6606.935    23.188469    21.195007    21.486227    10560.046    6802.8542    7077.2102    5940.7408   -35.080909   -520.91842    653.52789   -5413.7195 
 7553000    118.02887   -6732.3353   -6428.7132   -6732.3353            0      7008.62    23.117877    21.247622    21.481561    10551.741     6010.896    6883.4737    8131.4902     205.4736    324.02487    1149.0431   -5350.1825 
 7554000    123.65987   -6729.1822   -6411.0747   -6729.1822            0    6842.3645    23.109141    21.280265     21.46665    10556.625    7550.0127    6428.0895    6548.9912   -628.68964   -126.54151   -739.81296    -5357.641 
 7555000    113.05069   -6707.3654   -6416.5494   -6707.3654            0      6305.84    23.059138    21.399812    21.439015    10579.322    7483.6549    5452.5011    5981.3641   -685.64768   -801.00772   -386.99503   -5443.6304 
 7556000    122.07067   -6713.9031   -6399.8837   -6713.9031            0    7292.4181     23.05559    21.252366      21.4896      10529.6    7821.8102    7550.8992     6504.545    81.800506    321.90181   -307.24141   -5280.0351 
 7557000     115.1118   -6715.3061    -6419.188   -6715.3061            0    7430.1723    23.073049    21.316947    21.418702    10534.724    7274.1439    7676.3907    7339.9825   -220.10949    248.85563   -370.03443   -5277.6302 
 7558000    118.34209   -6726.0101   -6421.5823   -6726.0101            0    7154.4323    23.055082    21.306172    21.516593    10569.285    7832.6871    6573.2534    7057.3562    78.690028    639.76872    37.508199   -5318.7826 
 7559000       117.43   -6714.1942   -6412.1127   -6714.1942            0      8286.11    23.108834    21.222169    21.414093     10501.89    7648.2423    8490.8397     8719.248    727.31989    1220.6794   -22.302904   -5143.0179 
 7560000    110.90833   -6722.0198   -6436.7149   -6722.0198            0    7008.5176    23.059774    21.317074    21.460609    10549.325    7588.0355    6968.4075    6469.1097   -1416.2835   -475.40001    -613.8469   -5358.4468 
 7561000    119.86068   -6727.0185   -6418.6842   -6727.0185            0    7473.0965    23.073638    21.248965    21.469868    10526.481    8414.2566    6429.2134    7575.8194     79.13245   -475.64229   -299.78388   -5271.4298 
 7562000    119.20315    -6719.265   -6412.6221    -6719.265            0    6833.8436    22.992642    21.322056     21.50176    10541.246    7397.0908    6128.8132    6975.6268   -467.06348    59.197082     1029.878    -5362.033 
 7563000    117.95145   -6707.1707   -6403.7477   -6707.1707            0    6481.3619    23.114181    21.328286    21.442012    10570.609    6763.9519    6669.4228     6010.711    202.25322   -405.40657   -1231.1687   -5404.5714 
 7564000    114.28935   -6716.4069   -6422.4046   -6716.4069            0    7251.3683    22.977054    21.425852    21.403848    10537.178     7780.658    7679.4121    6294.0347    1000.0322   -655.65507   -401.07422   -5308.0583 
 7565000    108.16295   -6719.1698   -6440.9272   -6719.1698            0    7088.5225    22.998068    21.369145    21.462028    10547.493     7835.003    7289.3883    6141.1761   -482.52977   -193.55289   -719.68006   -5350.5397 
 7566000      115.903   -6698.5441   -6400.3907   -6698.5441            0     7914.655    23.046205      21.3064    21.450602    10532.925    7491.6332    7963.9149     8288.417    950.33185    839.82331    539.98253   -5184.6055 
 7567000    113.37696   -6728.9244   -6437.2691   -6728.9244            0    6626.1558    22.984173    21.435924     21.38721      10537.2    6424.4509    5819.7059    7634.3107    118.46921    391.78159    304.92721   -5418.9996 
 7568000    114.39523   -6726.3737    -6432.099   -6726.3737            0     7109.572     23.03214    21.307852    21.497563    10550.261    8089.9592    6166.3581    7072.3987   -856.05953    995.34471   -867.56282   -5338.1865 
 7569000    112.41328   -6730.3835   -6441.2072   -6730.3835            0    7706.8933    23.119792    21.296146    21.360179     10516.95    8239.6273    6669.6133    8211.4392   -1006.7097    539.84044    225.88303   -5259.1321 
 7570000    119.64966   -6727.6968   -6419.9053   -6727.6968            0    7889.9187    23.078129    21.181756    21.513053    10516.339    6526.0011    8650.7728    8492.9823    -305.6107    745.60633    241.04102   -5209.8283 
 7571000    116.92489   -6717.1929   -6416.4107   -6717.1929            0    7799.0181    23.162632    21.146175     21.46798     10515.04    7610.7282     8141.947    7644.3793    101.78621    24.831954    462.12507    -5220.423 
 7572000    119.09092     -6702.19   -6395.8358     -6702.19            0     7226.827    23.180298    21.179057     21.50431    10557.258    7090.0262    7729.2773    6861.1775   -196.16018    567.78059   -149.47717   -5283.1445 
 7573000    112.00281   -6724.0044    -6435.884   -6724.0044            0    6798.2535    23.214728    21.148463    21.529414    10569.991    7491.6405    6651.5128    6251.6074    -735.2553   -929.63292   -248.58479   -5387.9164 
 7574000    120.37459   -6724.5586   -6414.9023   -6724.5586            0    8305.7126    23.350289     21.02698    21.359837    10487.382    6478.0977    9476.9646    8962.0754   -36.176056    857.99252    217.00024   -5144.5626 
 7575000    117.75868   -6722.5935   -6419.6665   -6722.5935            0    7029.6124    23.165127    21.179501    21.493872    10545.448    6512.9854    7802.9892    6772.8625    -273.7768     45.23351     364.7927   -5338.5504 
 7576000    114.20949   -6713.1648   -6419.3678   -6713.1648            0    6833.8318    23.210948    21.198414    21.451325    10554.809    7254.0304    6690.0197    6557.4453   -108.64173    -234.2606   -300.57734   -5367.4289 
 7577000    116.97104   -6733.0501   -6432.1492   -6733.0501            0    6980.3015    23.131096    21.224818    21.471288    10541.399    7136.3137    6827.7192    6976.8716   -1139.9775    440.64206   -494.66321   -5359.0291 
 7578000    122.44525    -6720.352    -6405.369    -6720.352            0    5992.6342    23.206215    21.304143    21.431026    10595.253    4991.6547     6712.308    6273.9398      460.476   -174.42359   -593.16161   -5479.3818 
 7579000    116.39078   -6731.5347   -6432.1265   -6731.5347            0    6444.6824    23.094314    21.306048    21.473638    10566.073    6642.1867    6175.4383    6516.4222    541.99116    6.4974216    75.160794    -5439.031 
 7580000    113.74676   -6693.1308   -6400.5242   -6693.1308            0    7469.0165    23.106363    21.281161    21.409722    10527.808    7040.9302     7399.113    7967.0063    524.86384    264.15869    39.607048   -5253.7517 
 7581000    111.44689   -6721.9053    -6435.215   -6721.9053            0    6734.3744    23.019874     21.32726     21.54417    10577.128     7441.657    6029.1137    6732.3524   -776.51208   -134.21622   -743.36805   -5396.3935 
 7582000    112.97747   -6715.0602   -6424.4326   -6715.0602            0    8046.1047    23.090986    21.256332    21.430426    10518.688    9167.3524     8158.404    6812.5576   -305.76162   -627.63068   -764.42219   -5190.1257 
 7583000    116.96357   -6722.6236    -6421.742   -6722.6236            0    7828.9984     23.00827    21.304782    21.486787    10532.526    8908.6572    7358.5769    7219.7612   -116.51503   -796.71502   -631.07363   -5219.1602 
 7584000     119.0364   -6699.0715   -6392.8576   -6699.0715            0    7602.5305    23.033543     21.36516    21.406051    10534.246    6721.9232    7210.6815    8874.9867   -28.218977    1108.4821    236.43737   -5224.8719 
 7585000    116.97481   -6721.6774   -6420.7668   -6721.6774            0    7702.5806    22.956215    21.431013    21.390688    10523.683    7956.8193    6543.8522    8607.0702     756.5707    -44.68049   -40.319225   -5238.5969 
 7586000    114.92058   -6721.4616   -6425.8354   -6721.4616            0    7888.4656     23.05173    21.326749     21.41483    10527.926    7623.9981    7760.6701    8280.7285    373.71406    561.70961    -5.309182   -5214.6483 
 7587000    115.73407    -6736.486   -6438.7672    -6736.486            0    6470.3081    23.050445    21.385378    21.439247    10568.316    7001.5003    6314.4706    6094.9534   -225.33039    790.79276   -63.700092   -5441.5113 
 7588000    115.87978   -6709.7398   -6411.6461   -6709.7398            0    8167.0155    22.961107    21.271009     21.49328    10497.445    9176.4909    8076.2101    7248.3455    127.98458     192.7895    55.184927   -5161.3212 
 7589000    108.93652    -6720.215   -6439.9825    -6720.215            0    7011.8237    23.097451    21.346669    21.396188    10549.468    6570.2015    6363.0552    8102.2143   -43.614754    1305.2681    915.27934   -5361.1912 
 7590000    113.98985   -6722.5298   -6429.2979   -6722.5298            0    6996.8777      23.0175    21.287269    21.522993     10545.83    7421.5009    7540.9722      6028.16    -310.9857   -298.14264   -691.48134   -5353.1773 
 7591000    111.25536   -6725.5783   -6439.3807   -6725.5783            0    6721.8109    23.268142    21.215652    21.392191     10560.23    6226.7193    6512.1918    7426.5215    406.18424    165.08348    61.546589   -5404.1538 
 7592000      117.625   -6722.4394   -6419.8562   -6722.4394            0    7090.3047    23.112148    21.183482    21.547259    10549.447    7847.9651    7401.6735    6021.2754    25.326151   -355.37842   -144.96467   -5328.9926 
 7593000    114.52573   -6719.6496   -6425.0391   -6719.6496            0    7107.5621    23.167359    21.163829     21.53481    10558.733     6575.803    7762.4223    6984.4609    1082.3442    421.94132   -0.9047206   -5330.5578 
 7594000    116.72386   -6712.3766   -6412.1116   -6712.3766            0    7802.8806    23.194665    21.175321    21.433459    10527.139    8240.0927    7770.4195    7398.1297    285.06357   -473.66727    344.62179   -5214.1546 
 7595000    111.63599   -6728.3055   -6441.1287   -6728.3055            0    6631.0868    23.237167    21.137936    21.529713    10575.089      6201.98    7705.2049    5986.0756    178.32912   -723.23634   -248.57234   -5418.4373 
 7596000    115.97271   -6703.3966   -6405.0638   -6703.3966            0    7890.8523    23.271801    21.130598    21.416246    10531.376    7620.5697    7863.3525    8188.6347   -830.33021   -5.0941606   -105.77118   -5193.1132 
 7597000    112.96342   -6715.0375    -6424.446   -6715.0375            0    6775.8579    23.270147    21.069178    21.563808    10572.365    5783.7476    7885.7264    6658.0997   -49.510076   -755.56049     732.0385    -5379.696 
 7598000    112.37295   -6725.9459   -6436.8733   -6725.9459            0    6825.7197    23.245939    21.135299    21.438726    10533.058    5872.4037    7038.2188    7566.5367    92.138591   -155.30449    972.85581   -5388.3483 
 7599000    113.93897   -6713.6881   -6420.5871   -6713.6881            0    6918.7609     23.17143    21.201719     21.49342    10559.162    7123.4888    6630.0724    7002.7214   -672.84775    58.868159    483.87031   -5355.1356 
 7600000    109.71845   -6711.6089   -6429.3649   -6711.6089            0    6950.2074     23.30647    21.140344    21.372344    10530.299    6038.3619    6979.5904    7832.6698    2.1403549    394.67377   -296.24893   -5361.9965 
 7601000    110.94823   -6723.2626    -6437.855   -6723.2626            0     7221.933    23.134751     21.17782    21.546495    10556.567    7276.1457     8275.815    6113.8383   -470.03875   -309.34175   -168.79719     -5325.99 
 7602000    117.94502      -6721.3   -6417.8936      -6721.3            0    8048.8714    23.212864    21.147287    21.407606    10508.761     7291.796     8555.873    8298.9451   -411.06511    553.29886    581.93327   -5184.3276 
 7603000    113.48565   -6700.2173   -6408.2824   -6700.2173            0    7566.3973    23.116299    21.206865    21.518687    10548.982    7367.5894    8239.9299    7091.6726   -137.55612    619.36186   -155.59288   -5244.2218 
 7604000    116.53867   -6714.6941   -6414.9055   -6714.6941            0    7629.8055    23.117901    21.267774    21.414828     10528.95    7156.9056    7694.8213    8037.6897    1366.8468   -306.88496    209.49502   -5243.3189 
 7605000     116.3756   -6710.3898   -6411.0207   -6710.3898            0    7646.9631    23.039623    21.282155    21.477859    10531.299    7053.4341     8739.708    7147.7471   -515.44228    1694.5627   -524.06985   -5236.5374 
 7606000    112.97866   -6719.4413   -6428.8106   -6719.4413            0    7337.2367    22.985729    21.361108    21.439906    10527.008    6891.2949    7943.8859    7176.5294    663.24039   -157.51443   -398.69969   -5302.3569 
 7607000    114.58811   -6720.0738   -6425.3029   -6720.0738            0    8099.0671    23.059701     21.27546    21.429364    10513.369    9225.1816    6836.0633    8235.9565    454.17008   -363.79174   -35.570786   -5183.4996 
 7608000    117.83244   -6727.7959   -6424.6792   -6727.7959            0    7936.5867    22.964081    21.237006    21.565467    10517.226    8308.7627    7708.4107    7792.5868    205.58495   -695.60005    536.29446    -5207.342 
 7609000    115.16923   -6723.7779   -6427.5121   -6723.7779            0    7540.2194    23.119999    21.305233    21.361145    10522.008    7879.5295    7369.3396    7371.7891     272.1917    223.40433    609.45743   -5270.4451 
 7610000    112.15575   -6718.4186   -6429.9048   -6718.4186            0     7763.621    23.020004    21.259056    21.534755    10538.755    8905.6946    7393.8749    6991.2935    237.01682   -631.67339     179.9471     -5236.66 
 7611000    115.66798   -6714.0242   -6416.4753   -6714.0242            0    6376.4774    23.214654     21.38117    21.264656    10554.849    5680.3381    6064.7565    7384.3377   -66.789612    233.30919   -279.79552   -5434.9336 
 7612000    115.68602   -6716.3649   -6418.7697   -6716.3649            0    6586.7474    23.040249    21.246237     21.58822    10567.835    7851.2868    5729.4563    6179.4991   -18.922255   -655.96103    438.81552   -5403.6133 
 7613000    117.81705   -6718.8662    -6415.789   -6718.8662            0    6784.6609     23.09729     21.30369    21.423271    10541.481    6655.0566    6380.5468    7318.3794    24.535799    622.52627    233.15486   -5372.7377 
 7614000    114.23975   -6707.3225   -6413.4477   -6707.3225            0    7152.5678    23.004729    21.322854    21.532064    10562.047    8133.6153    6842.9374    6481.1507    311.79463   -803.78422    290.69707   -5311.6904 
 7615000    116.22924   -6709.2534   -6410.2608   -6709.2534            0    8742.2807    22.981922    21.323082    21.432032    10502.668    9502.6224    8096.9285    8627.2912    87.733516     -483.064   -111.59893      -5071.2 
 7616000    113.72803   -6730.8348   -6438.2764   -6730.8348            0    7514.4814    23.083052    21.316233    21.411361    10535.326    7677.7603    6259.5604    8606.1236   -122.73187     809.8554    1052.8509   -5283.6995 
 7617000     111.2866   -6730.9213   -6444.6433   -6730.9213            0    8072.4009    22.928024    21.292712    21.506259    10499.351    8650.1393    8004.1614    7562.9018    411.54657    90.511801   -114.79159   -5208.5789 
 7618000    114.03755   -6728.2873   -6434.9327   -6728.2873            0    6914.7272    23.091614    21.307363     21.42816    10543.113    7171.5128    5886.5218    7686.1469   -649.69362    738.61457     609.2895   -5371.7208 
 7619000    116.05112   -6723.2725    -6424.738   -6723.2725            0     7422.963    23.033427    21.277988    21.489356     10532.04    7948.8978     7675.719    6644.2721    335.67785    255.36798   -776.94479   -5284.5783 
 7620000    112.37201   -6718.3975   -6429.3273   -6718.3975            0    6786.1236    23.146305    21.356262     21.37923     10568.15    6932.0484    5881.7875     7544.535    -98.74135   -440.29351    -672.6276   -5383.4118 
 7621000    111.96126   -6707.5149   -6419.5014   -6707.5149            0    8132.9871    23.019904    21.215274    21.521427    10510.496    9498.6651    8153.7317    6746.5645   -920.73043   -358.96016   -526.15007    -5172.838 
 7622000    118.17636   -6706.1823   -6402.1809   -6706.1823            0    7409.8271    23.202364     21.19435    21.431754    10539.259    6234.5759    7893.1213     8101.784    1081.2552    831.57428    1103.3038   -5263.2587 
 7623000    111.39116   -6707.9487   -6421.4018   -6707.9487            0    8495.4993    23.027957    21.201111    21.501821    10497.582    8463.2167     8688.414    8334.8671    612.31351   -587.28356       456.94   -5120.7708 
 7624000    117.49433   -6721.2355   -6418.9885   -6721.2355            0    6765.3373    23.212193    21.283291    21.401403    10572.975    6422.9833    7204.2597    6668.7689   -355.61459   -131.20311   -459.53689   -5375.8006 
 7625000    115.42606   -6705.5005    -6408.574   -6705.5005            0    7306.0438    23.103527    21.261128    21.471152    10546.781    7898.8528    7053.1223    6966.1565    138.06313   -957.42783   -617.77095   -5284.8022 
 7626000    115.94761   -6722.2446   -6423.9764   -6722.2446            0    6844.4957    23.214663    21.193794    21.450306    10553.696    6645.5723    6538.7073    7349.2076    237.79366    934.75399    200.61756    -5370.507 
 7627000    118.10287   -6726.8849   -6423.0724   -6726.8849            0    7561.3111    23.063246    21.238179    21.521211    10541.548    7736.0618    6924.8474    8023.0241   -586.92585    294.32754    320.79196   -5260.6141 
 7628000    117.14416   -6722.1536   -6420.8074   -6722.1536            0    7139.7616    23.213914    21.238333     21.36633    10534.132    6563.6387    6680.0684    8175.5776    417.30482    314.72391   -405.41068   -5323.9294 
 7629000    116.67559   -6710.1359    -6409.995   -6710.1359            0    5475.1687    23.117903    21.362683    21.484555    10610.372    6065.3712    4857.4297    5502.7051   -1160.6991    -677.8867   -212.44182   -5562.7598 
 7630000     113.1268   -6736.1649   -6445.1531   -6736.1649            0    6794.6038    23.166178    21.285917    21.377814    10541.685    6219.1369    6211.3029    7953.3717   -502.34315    567.66539    524.24207    -5400.553 
 7631000    114.78165   -6737.5949   -6442.3261   -6737.5949            0    6850.1911    23.030261    21.178377    21.643895     10556.67    6753.9547    6900.0777    6896.5409    340.24041    753.34723    527.92748   -5387.6829 
 7632000     120.8669   -6711.7898   -6400.8671   -6711.7898            0    8201.3234    23.229282    21.248435    21.276465    10501.763    8058.8389    7413.0822    9132.0492   -303.97811    726.64208    530.54178   -5144.7734 
 7633000    115.69851   -6714.0019   -6416.3746   -6714.0019            0    6989.8251    23.135006    21.271463    21.491345    10576.222    7220.1986    6469.7984    7279.4783    -219.1118    485.00422   -109.72123   -5338.2405 
 7634000    111.24095   -6722.3097   -6436.1491   -6722.3097            0    7106.5207    23.206487    21.264486    21.353844    10537.567    6778.3004    6999.3403    7541.9215    359.03244   -76.315875   -648.74665   -5344.0218 
 7635000    107.34099   -6716.8992   -6440.7711   -6716.8992            0    6597.5388    23.061341      21.2465    21.598887    10582.867    6917.3809    6771.5776    6103.6579    1019.8708   -255.31025    316.67936   -5422.5053 
 7636000    121.69725   -6716.2761   -6403.2173   -6716.2761            0    7977.9769    23.023456    21.216311    21.501165    10502.734    8326.6683    8169.4212    7437.8412   -374.99943   -301.93132    356.33232   -5181.2178 
 7637000    118.04639   -6731.4116   -6427.7445   -6731.4116            0    6658.6364    23.183155     21.28947     21.40699    10565.571    5456.9942    7476.3379    7042.5771   -358.30278    358.49278   -228.41591   -5401.7284 
 7638000    113.79822   -6723.8214   -6431.0824   -6723.8214            0    7180.4084    23.078097    21.295429    21.413108    10523.643    7925.1204    6922.9251    6693.1798    -1003.788    -425.6234   -711.83315   -5329.0582 
 7639000    113.97852    -6722.755   -6429.5522    -6722.755            0    7330.0646    23.169455     21.21797    21.453982    10546.967    7141.4834    6726.0247    8122.6856    335.89881   -1.4628019   -327.68468   -5302.0659 
 7640000    120.25755   -6735.0818   -6425.7266   -6735.0818            0    6342.7169    23.072321    21.295445    21.509473    10568.364    5984.3658    6795.7744    6248.0107    768.78714   -514.23595    647.30365   -5448.1315 
 7641000    113.78663   -6720.5473   -6427.8382   -6720.5473            0    7390.5054    23.081893    21.255299    21.469378    10533.146    7787.4468    6293.5403    8090.5293    438.60156    276.04018    688.35182   -5292.5448 
 7642000    111.95844   -6708.1741   -6420.1679   -6708.1741            0    7461.8054    23.065529    21.313154    21.455116    10547.317    8273.6699    7067.2118    7044.5345    52.780529   -1140.9636    22.493114   -5272.3795 
 7643000     114.7724   -6714.4359   -6419.1909   -6714.4359            0    7312.3401     23.12439    21.282518    21.394793    10529.346     7365.434     7189.167    7382.4192   -781.31752    442.12841   -468.26307   -5296.3101 
 7644000    115.34163   -6724.2005   -6427.4912   -6724.2005            0    6562.2372    23.097814    21.238144    21.532945    10563.088    6908.5936    6869.9466    5908.1713    -424.5813   -95.959131    171.63215   -5416.5667 
 7645000    119.82479   -6710.3104   -6402.0685   -6710.3104            0    7865.1758    23.022383    21.257363    21.494334    10519.223    7624.8772    7747.1364    8223.5137    394.40292   -429.24069    952.84877   -5195.4556 
 7646000    117.14967   -6726.5766   -6425.2162   -6726.5766            0    7381.1227    23.091188    21.246418    21.468593      10532.6    7179.1162    8382.6133    6581.6386   -668.34347    650.96096   -315.53124   -5291.4229 
 7647000    114.75906   -6727.0087    -6431.798   -6727.0087            0    7018.4783    23.112926    21.311611    21.390872    10536.581    6812.2321    6943.5305    7299.6722   -808.98096   -558.64072   -422.09526    -5353.302 
 7648000    117.25567   -6743.7946   -6442.1615   -6743.7946            0    5580.1654    23.158399    21.297471    21.472279    10590.458    4381.2359    5423.7523    6935.5082   -740.68082    1154.6671    561.23201   -5580.2996 
 7649000    116.16997   -6706.3351   -6407.4949   -6706.3351            0    6746.0507    23.109932    21.259932    21.485574    10556.198    7356.2044    6388.3381    6493.6097    1580.4397   -612.77525   -138.55019   -5368.9315 
 7650000     114.5303   -6725.0742    -6430.452   -6725.0742            0    6617.7975    23.113536    21.270974    21.466572    10553.985    6769.4939    5923.9492    7159.9496   -105.07372   -214.11153    472.36458   -5411.8469 
 7651000     117.1681    -6711.882   -6410.4742    -6711.882            0    6663.2856    23.166171      21.2596    21.455093    10566.709    6172.3418    6768.1596    7049.3553   -558.11103    896.29204   -106.42029   -5383.6312 
 7652000    113.30047   -6725.1929   -6433.7344   -6725.1929            0    7302.2802    23.201563    21.287056    21.338105     10538.74      7351.26    7265.4364    7290.1443    180.59281   -553.96229   -518.07398   -5311.3979 
 7653000    114.46126   -6704.6495   -6410.2049   -6704.6495            0    5983.9641    23.132535    21.228386    21.549249    10582.112    6583.9833    6334.3257    5033.5831   -357.01093   -582.46035   -90.187407   -5486.7042 
 7654000     112.0665   -6708.5616   -6420.2774   -6708.5616            0    7704.4851    23.139591    21.191769    21.443083     10515.02    6402.3237    8131.4805    8579.6511    342.15395     1018.246     908.6094   -5238.7885 
 7655000     111.6647   -6724.9587   -6437.7081   -6724.9587            0    6701.4434    23.139361     21.24081    21.494359    10564.451     6036.831    6729.6729    7337.8262   -40.109141    75.912229    401.77906   -5405.2054 
 7656000    116.00676   -6748.1758   -6449.7555   -6748.1758            0    6996.0127    23.104823    21.210806    21.544343    10558.277    7805.5394    6692.4875    6490.0113    972.90821   -578.30784   -660.79112    -5372.498 
 7657000    115.06889   -6727.2562   -6431.2485   -6727.2562            0    6677.0984    23.155205     21.27935    21.411536    10550.057    6320.3553    6721.3677    6989.5723    153.97471    55.300811    -479.0247   -5403.8984 
 7658000    111.46219   -6716.2218   -6429.4921   -6716.2218            0    7824.4866    23.114621     21.19027    21.473832    10517.992    7572.3616    7410.7964    8490.3018   -342.37874    656.05518     685.2254   -5229.2619 
 7659000    114.24907   -6711.4394   -6417.5407   -6711.4394            0     7301.918     23.19108    21.196046    21.450159    10544.023    7240.4362    8060.1328    6605.1849   -131.01198     56.12065    449.49404   -5294.6973 
 7660000    114.90711   -6720.7802   -6425.1886   -6720.7802            0    7464.6183    23.111926    21.194428    21.507783     10535.46    6573.4016    7937.3883    7883.0649   -434.10866     301.0713    571.81275   -5278.2584 
 7661000    114.29878   -6736.4506   -6442.4239   -6736.4506            0    5880.8044    23.201419    21.228024     21.52957     10603.75    5514.0079    7015.3379    5113.0674    815.97105   -415.55304    411.57131    -5532.988 
 7662000    115.94946   -6714.7202   -6416.4473   -6714.7202            0    8388.5996    23.074633    21.191425    21.484033    10505.356    8306.8908    9402.2122    7456.6958     138.2528   -467.17063   -723.47351   -5131.2313 
 7663000    113.68869   -6718.2752    -6425.818   -6718.2752            0    6802.7466    23.114487    21.301074    21.469675    10570.883    6784.2268    7084.9883    6539.0247   -153.78206    274.28292    671.24701   -5377.0693 
 7664000    114.27769   -6720.3793   -6426.4069   -6720.3793            0    8131.4101    23.018792    21.310734     21.39017    10492.891     8323.938    7976.9363    8093.3562    490.36345   -607.94636    393.74376    -5182.073 
 7665000    118.48074   -6726.4896   -6421.7051   -6726.4896            0    7303.1122    23.087094    21.288697    21.448635    10541.879    8225.2617     5766.871    7917.2038    705.62484   -1084.9042   -101.37273   -5298.9065 
 7666000    121.44585   -6716.4862   -6404.0741   -6716.4862            0    7658.0432    23.070888    21.332521    21.358726    10511.915    8778.1006    6682.5659     7513.463    106.44342   -961.10123    245.26262    -5230.054 
 7667000    109.94462   -6709.5016   -6426.6758   -6709.5016            0    7740.5948     23.04165    21.271753     21.52877    10552.032    8243.2128    6957.6002    8020.9714   -106.76071    1117.7746    285.18226   -5235.4713 
 7668000    116.44505   -6703.9926   -6404.4448   -6703.9926            0    7580.1611    23.058076    21.266341    21.456751    10521.552    8026.1076     7643.151    7071.2247   -585.14185   -65.393584    143.59218   -5241.2991 
 7669000    122.17017   -6714.2565   -6399.9812   -6714.2565            0    6817.8319    23.163906    21.270344     21.43758    10562.387    6284.4858    7641.9475    6527.0624     275.7347    993.92003   -606.23061   -5349.7516 
 7670000    113.37264   -6709.3142     -6417.67   -6709.3142            0    8382.8556    23.063704    21.215152    21.460634    10500.688    7717.7643    9362.7215     8068.081    800.56023   -144.53252   -606.56702   -5133.9047 
 7671000    118.33362   -6728.6549   -6424.2489   -6728.6549            0    6990.8113    23.142085    21.247655    21.465485    10554.902     6687.062    7494.4333    6790.9387   -83.548981   -370.73733    374.70272   -5348.1364 
 7672000    116.83736   -6718.8052   -6418.2482   -6718.8052            0    7335.8024    23.159378    21.163241    21.494274    10534.935    6943.5568    8147.7495     6916.101    769.60742    727.01181   -37.622228   -5291.1666 
 7673000    117.16543   -6730.2225   -6428.8215   -6730.2225            0    7214.5707    23.169709    21.212407    21.442094    10538.474     7606.917    7632.5723    6404.2226   -154.71483   -1420.3831   -798.21782   -5319.9937 
 7674000    112.17288   -6717.2905   -6428.7326   -6717.2905            0    7592.5121    23.231763    21.165858    21.425197    10535.202    6279.4119    8192.7461    8305.3783    -103.8307   -330.50674   -527.52437   -5262.1802 
 7675000    117.77754   -6722.2199   -6419.2443   -6722.2199            0     7458.945    23.175416    21.143725    21.455421     10513.47    6365.3516    8148.4363     7863.047   -481.57868   -16.832359    119.45099   -5275.5779 
 7676000    116.83247   -6733.1658   -6432.6213   -6733.1658            0    6971.8371     23.18255    21.187058    21.459909    10540.464     6523.874    7051.9432    7339.6941   -906.01745    291.56266    549.44069   -5360.8976 
 7677000    116.75287   -6703.5853   -6403.2456   -6703.5853            0    6969.6094    23.236599    21.136587    21.509288    10564.123    6211.3984    8136.6231    6560.8067    252.73579    185.14503    -894.5047   -5329.4595 
 7678000    114.02112   -6707.1441   -6413.8317   -6707.1441            0    8366.9564    23.133075    21.254671      21.3833    10513.867    8162.2519    7953.5974      8985.02    -221.8819   -862.87203    163.38664   -5130.8931 
 7679000    115.65242   -6714.4142   -6416.9054   -6714.4142            0     7203.041    23.129703    21.192825    21.513766    10545.698    7615.5136    7540.7921    6452.8173    235.68715    866.94897   -99.566056   -5309.0907 
 7680000    117.13192   -6717.4879   -6416.1732   -6717.4879            0    6940.9021    23.054603     21.29105    21.478276    10542.756    7123.4662     6872.201     6827.039    388.00106   -555.75922    291.95001   -5348.9729 
 7681000    115.55449   -6723.1771   -6425.9202   -6723.1771            0    6482.1633    23.113808     21.31428    21.439175    10562.099    6570.8146    5559.4367    7316.2386   -418.62368    826.13435     18.87592   -5427.4248 
 7682000     111.9967   -6699.9843   -6411.8796   -6699.9843            0    7199.4487    23.020218    21.379334    21.464251     10563.78    7259.6472    7039.4173    7299.2816  -0.40832007    1202.4601   -347.10416   -5302.7189 
 7683000    112.99169   -6723.6481   -6432.9838   -6723.6481            0    6732.4649    23.058069    21.430061     21.37886     10564.06    6934.8373    6206.4878    7056.0695    -987.6208    559.55787   -530.73652     -5395.74 
 7684000    112.33126   -6720.9301   -6431.9648   -6720.9301            0    7080.8224    22.974814     21.34914    21.518492    10554.659     7590.227    6967.4632     6684.777     89.82583    471.66367    35.886347   -5342.0217 
 7685000     116.3809   -6709.4385   -6410.0557   -6709.4385            0    7687.9665    22.997287    21.316907    21.463325    10521.988    9109.9073    6110.3917    7843.6007   -432.37501    15.721682     543.8576   -5230.3188 
 7686000    118.34125   -6711.3222   -6406.8966   -6711.3222            0    8122.1626    22.977146    21.399292    21.389325    10517.017    8676.1876    6781.2464    8909.0539    352.07784   -346.52804    653.02017   -5161.1201 
 7687000    111.46432   -6725.9703   -6439.2351   -6725.9703            0    6534.1872    23.042815    21.409002    21.438295    10576.018    6588.8277    6728.7734    6284.9605    1004.7584    296.80927   -310.71784   -5431.3996 
 7688000    116.52277   -6705.7046   -6405.9568   -6705.7046            0    7141.3463    23.040486    21.326086    21.459179    10544.255    6658.4738    7370.3338    7395.2314   -7.0246349    952.82878   -715.46779    -5307.781 
 7689000      110.266   -6727.7426   -6444.0901   -6727.7426            0    6772.0958    23.028806     21.30976    21.517198    10559.313    6871.0836    6412.4587    7032.7451     58.09788   -39.760069    492.27931   -5401.2093 
 7690000    121.89847   -6709.7763   -6396.1999   -6709.7763            0    6656.6106    23.121904    21.351033    21.379577    10554.595    7002.0209    6271.3414    6696.4696    272.29411     409.3291    860.22044   -5371.5615 
 7691000    119.16587   -6716.9045   -6410.3575   -6716.9045            0    7260.6812    22.983781    21.304241    21.547328    10550.692    7937.7588    7078.1091    6766.1756   -433.42993    3.8872659    236.58526   -5293.1491 
 7692000    114.06696   -6703.9201   -6410.4898   -6703.9201            0    8267.3881    23.199436    21.247123    21.307784     10503.06    7373.8077    7990.5186     9437.838    1154.4508    5.1967313    627.62401   -5144.1214 
 7693000    117.07108   -6731.7115   -6430.5533   -6731.7115            0    6928.6436    23.140662    21.175009    21.563889    10566.386    6124.6952    8519.3658    6141.8699    890.50539   -248.60923   -643.32722   -5362.8501 
 7694000    114.23033   -6713.3535   -6419.5029   -6713.3535            0    7404.2715    23.219661    21.200143    21.422041    10545.217    7010.6509    7852.0331    7350.1303   -125.41722      872.177    1050.5457   -5280.7914 
 7695000    117.65236   -6716.4448   -6413.7913   -6716.4448            0    7203.6026    23.196682     21.09776    21.574434    10558.485    6777.9167    8224.4135    6608.4775    60.427859    190.92489   -333.66762   -5304.5468 
 7696000    115.81413   -6723.3262   -6425.4014   -6723.3262            0    7346.5166    23.372739    21.098742    21.371406    10538.996    6192.6082    6827.6472    9019.2944    -441.5025    875.06722    716.92162   -5296.2385 
 7697000    116.47955   -6719.0656    -6419.429   -6719.0656            0    6800.7202    23.230206    21.106274    21.531891    10557.153    6128.2679    7567.8025    6706.0901   -186.47187    253.92277    413.10825   -5372.3545 
 7698000    114.34521   -6705.3476   -6411.2016   -6705.3476            0    7593.3174    23.278605    21.076951    21.472183    10535.155      5764.56     9378.949    7636.4431    475.84338    264.59165    373.58216   -5244.5307 
 7699000    121.96573   -6725.4808   -6411.7314   -6725.4808            0    6738.3785    23.301956     21.11005     21.48244    10567.329    5797.3989    7776.7056    6641.0311   -215.14932   -14.190499   -510.07732   -5373.2552 
 7700000     113.8008   -6722.9068   -6430.1612   -6722.9068            0    6725.4814    23.204474    21.206014    21.476957     10568.26     6469.294     7083.736     6623.414   -200.91903   -519.24623   -559.73738   -5393.5813 
 7701000    119.58486   -6725.3601   -6417.7354   -6725.3601            0    6702.5058    23.233639    21.167696     21.46109     10554.62    6118.0135    6230.9125    7758.5914   -542.95655   -45.837438    984.91325     -5386.03 
 7702000    116.63091   -6720.5744   -6420.5485   -6720.5744            0    7288.1356    23.045244    21.160212    21.603446    10534.754    8046.5964    7886.1317    5931.6786    435.02036    -803.1213    837.37016   -5300.8097 
 7703000    109.58278   -6723.1333   -6441.2383   -6723.1333            0    7906.0232    23.121301    21.226446    21.412936    10509.106    7806.1112    7519.9925    8391.9659    601.82744    21.988626   -287.27207   -5229.5254 
 7704000     114.7182   -6721.8396    -6426.734   -6721.8396            0    7584.0359    23.047203    21.290504    21.482679    10541.262    8285.5142    7105.4784    7361.1151    60.524864   -732.81487   -527.62936   -5260.8137 
 7705000    112.73003    -6722.201   -6432.2099    -6722.201            0    6921.5714    23.100276    21.404818    21.357472    10560.356    6541.5029    6547.6974    7675.5138    341.94501   -249.22467    78.723619   -5366.2051 
 7706000    108.90263   -6715.9496   -6435.8042   -6715.9496            0    8370.4594    22.977598    21.258608    21.493236    10498.839    9543.7556    8390.9606     7176.662   -195.79166   -175.32617   -44.144963    -5154.163 
 7707000    113.15504   -6727.0902   -6436.0058   -6727.0902            0    6710.8393    23.006273    21.399204     21.44339    10556.923    6301.9366    7055.8036    6774.7775    924.09154   -8.3213162    268.59436   -5402.7923 
 7708000    116.23537   -6718.0688   -6419.0604   -6718.0688            0    7037.7773    22.910028    21.362625    21.541497    10542.803    7823.1956     6147.495    7142.6412    457.23866    22.869844    563.79743   -5336.9601 
 7709000    115.68769   -6715.6063   -6418.0067   -6715.6063            0    6361.7479    23.130145    21.371044    21.428178    10592.277    6800.3942    5630.1623    6654.6873    165.21048     72.44675   -532.48481   -5435.2599 
 7710000    114.69535   -6719.4535   -6424.4067   -6719.4535            0    7629.0672    23.040954    21.311059     21.44417    10529.669    8137.8171    7553.4253    7195.9591    633.28051   -382.26885   -1268.5355   -5252.8533 
 7711000    114.40001   -6707.4197   -6413.1327   -6707.4197            0    7296.4966    23.074739    21.350969    21.418463    10552.192    7935.3174    6432.1577    7522.0149   -760.73221    253.13945    76.952699   -5290.2537 
 7712000    113.40766    -6722.317   -6430.5827    -6722.317            0    7621.8438    23.044966    21.292122    21.433615    10516.966    8311.7241    6441.6212     8112.186     89.56589   -19.449827    490.19102   -5261.5507 
 7713000     112.8108   -6719.3739    -6429.175   -6719.3739            0    6936.7562    23.157444    21.221235    21.500765    10566.111    5458.1416    8329.5713    7022.5557    468.06901    726.44049     132.6375   -5360.2494 
 7714000    114.23634   -6712.7933   -6418.9273   -6712.7933            0    7962.7023    23.182911      21.2274    21.392871    10527.708    7717.6652    7207.9439     8962.498    35.689866    280.97539    232.12991   -5196.3673 
 7715000     109.3157   -6720.6992   -6439.4912   -6720.6992            0    7262.0664    23.214757    21.149601    21.466379    10539.624    7437.0811    6927.4525    7421.6655   -425.53328    42.651389   -479.88764   -5323.2419 
 7716000    113.28758   -6713.0176   -6421.5923   -6713.0176            0    7312.4176    23.209761    21.101457    21.481458    10520.754     6760.897     8205.431     6970.925    160.38358   -138.31297     30.23561   -5299.6158 
 7717000    117.19266   -6724.4492   -6422.9783   -6724.4492            0    6956.7079    23.267352    21.014938    21.568511    10546.181    6791.2279    7617.8922    6461.0035   -125.66848    10.621503    509.64648   -5353.0002 
 7718000     123.4873   -6735.0197   -6417.3562   -6735.0197            0    6605.8476    23.234364    21.165641    21.504174    10575.112    6269.7543     7891.787    5656.0013   -79.099708    24.989256   -851.03795    -5398.555 
 7719000    110.02375    -6709.159   -6426.1296    -6709.159            0    7362.7441    23.286516    21.040116    21.519239    10543.373    6963.5323    8435.2765    6689.4235   -260.51875    33.823041   -226.15709   -5294.0026 
 7720000    112.00284   -6728.0827   -6439.9622   -6728.0827            0    7133.9264     23.27706     21.14395    21.387884    10526.453    6196.4728    7986.4567    7218.8498   -310.08708   -186.39868   -27.619292   -5344.7795 
 7721000    116.38886   -6728.8527   -6429.4495   -6728.8527            0    7759.1382    23.065563    21.143497    21.590081    10529.195    8621.2443    8042.9295    6613.2406    197.13314    33.268771     435.4421   -5237.9756 
 7722000    112.21646   -6713.5296   -6424.8596   -6713.5296            0    8417.6539    23.153808    21.192258    21.356932    10479.451    8784.6799    8187.6176    8280.6643    225.92639   -130.87369   -540.31084   -5138.3723 
 7723000    114.91127   -6731.1722   -6435.5699   -6731.1722            0    7030.4004    23.068711    21.297783    21.525146    10575.571    7700.1532    7295.1686    6095.8793   -753.95149   -443.61023   -625.73762   -5351.2442 
 7724000    120.79889   -6714.1145   -6403.3667   -6714.1145            0     8140.317    23.126626    21.297345    21.329171    10505.379    8266.1416    7965.7233    8189.0862    792.40754   -579.80366   -444.23393   -5156.1874 
 7725000    116.36675   -6732.5951   -6433.2487   -6732.5951            0       6787.4    23.092504    21.273823    21.497385    10560.931    6576.3708    7620.7615    6165.0678    81.194687    722.29264   -304.18358    -5387.851 
 7726000    120.62593   -6733.0805   -6422.7776   -6733.0805            0     7377.238     23.07491    21.276757    21.428002    10520.276    8150.5698    7150.8866    6830.2574   -268.18153   -403.03957   -846.85329   -5290.9069 
 7727000    119.93982   -6703.9527   -6395.4148   -6703.9527            0     7696.502     23.06214    21.399331    21.326088    10524.731    7578.0077    6032.9908    9478.5076   -953.33492    179.85841    298.24576   -5214.0602 
 7728000     117.7695   -6701.0321   -6398.0772   -6701.0321            0    8028.9725    23.015878    21.270775    21.462582    10507.341      8185.57    7522.0564    8379.2912    446.12139     463.2313   -948.41932   -5167.7272 
 7729000    116.18191   -6712.8806   -6414.0098   -6712.8806            0    8317.0368    22.977012    21.421669    21.333302    10500.378    7568.7452    7560.9609    9821.4044    56.776862   -367.83965    570.44382   -5140.3617 
 7730000    119.34122   -6711.0944   -6404.0964   -6711.0944            0    7671.3903    22.952387    21.317866    21.536009    10537.481    8119.8905    7645.7837    7248.4966    1024.0751   -852.91379   -624.17047   -5225.1698 
 7731000    120.00275   -6716.3892   -6407.6894   -6716.3892            0     7409.937     23.05527    21.387011    21.368461    10536.432    6451.3692    7953.4621    7824.9795   -167.41352    14.310746    216.48724   -5269.0559 
 7732000    116.56767   -6717.9416   -6418.0784   -6717.9416            0    7327.8373    23.026344    21.362626    21.464347     10558.38    7351.4012    6907.3817    7724.7289    976.83039    381.75688   -236.40345   -5289.7149 
 7733000    118.97276   -6734.7873   -6428.7371   -6734.7873            0    6573.3422    23.112344    21.295724    21.444278    10554.747    5692.9157    6772.5825    7254.5284    252.71503    1457.1204    49.120562   -5416.9015 
 7734000    111.87486    -6712.162   -6424.3707    -6712.162            0    6514.2891    23.118739    21.278882    21.506182     10579.77    7224.6585    5634.3489      6683.86   -165.86683   -30.788909    89.260947   -5419.2478 
 7735000    119.25342   -6731.9546   -6425.1824   -6731.9546            0    7793.4879    23.081857    21.256904    21.450294    10524.562    7144.9061    7996.7349    8238.8228    675.03613    230.96506   -116.32366   -5228.9604 
 7736000    113.42365    -6719.078   -6427.3026    -6719.078            0    7653.9782    23.160874    21.195343     21.48523    10547.157    8531.6897      7314.98    7115.2647   -546.40705   -608.80853   -974.64187   -5249.9717 
 7737000    114.33442   -6728.1745   -6434.0562   -6728.1745            0    6936.7401    23.231392    21.228426    21.409343    10558.358    7102.5563    6175.1625    7532.5016   -483.21346    183.44616    273.10356   -5365.9174 
 7738000    117.33493   -6713.6019   -6411.7649   -6713.6019            0    7304.8915    23.117777    21.170307    21.585622    10564.229    7268.6289    8164.7526    6481.2929   -280.55236    503.84605   -173.13245   -5286.3116 
 7739000    111.24484   -6709.5677   -6423.3972   -6709.5677            0    7464.2864    23.292312    21.223099    21.308541    10533.559    6184.7715    7694.1106     8513.977    829.76746    563.71015    865.38111   -5276.7249 
 7740000    115.95409   -6715.7971   -6417.5123   -6715.7971            0    7353.6075    23.126094    21.139647     21.57128    10545.713    8549.0353    7813.3557    5698.4315   -282.88325   -971.89715   -1071.7304   -5286.5391 
 7741000    109.06791   -6711.1331   -6430.5625   -6711.1331            0    6432.9062    23.241221    21.219703    21.464489    10585.681    4984.5887    6607.5667    7706.5631    474.92003    892.15231    974.62839   -5437.4421 
 7742000     112.9391   -6716.6897   -6426.1608   -6716.6897            0    7829.3022    23.067857    21.147119    21.564392    10519.514    8424.7084    8052.6621    7010.5362    101.65715   -385.98757    1046.4959    -5225.018 
 7743000    117.73164   -6716.6235    -6413.766   -6716.6235            0    7379.3407    23.229038    21.146875    21.473765    10548.376    6684.6527    8447.6915    7005.6778    157.29828   -210.77127    219.07191   -5278.5486 
 7744000    115.40631   -6717.0222   -6420.1465   -6717.0222            0    7581.3757    23.163814    21.237769    21.397528    10526.466    7779.2081    6989.9998    7974.9192    157.57947   -614.63804    226.14089   -5256.2711 
 7745000    127.95489    -6731.337   -6402.1808    -6731.337            0    7014.6435    23.169091    21.206355    21.498706    10563.001    7870.5758    7041.4758    6131.8789   -487.05665   -811.92356    -79.56872   -5321.5712 
 7746000    112.94784    -6717.426   -6426.8746    -6717.426            0    7322.7675    23.265358    21.057156    21.485684    10525.886    6018.1893    8753.5232    7196.5901   -881.94331    1248.6092    331.33116    -5302.762 
 7747000    111.20365   -6707.9201   -6421.8555   -6707.9201            0     7457.503    23.179467    21.181214    21.487341    10549.624    6892.8896    7568.1187    7911.5006    893.10538   -505.59953    653.43682    -5274.478 
 7748000    118.14239   -6718.2499   -6414.3358   -6718.2499            0    7947.8178    23.226618    21.170637    21.386602    10516.269    8292.3903    7707.0088    7844.0543    -420.9698   -373.99235   -36.504616   -5195.3869 
 7749000    117.08858   -6727.0584   -6425.8552   -6727.0584            0    7282.8495     23.18594    21.192747    21.459458    10544.615    6682.0682    8207.2591    6959.2213   -744.24647   -461.03466    72.837426   -5305.8812 
 7750000    123.52211   -6713.2626   -6395.5095   -6713.2626            0     7606.274    23.198926    21.148048     21.44927    10523.269    6773.0908    8548.9015    7496.8297   -46.069696   -127.96469    -151.1779   -5228.1664 
Loop time of 663.778 on 64 procs for 250000 steps with 1296 atoms

Performance: 65.082 ns/day, 0.369 hours/ns, 376.632 timesteps/s
193.8% CPU use with 32 MPI tasks x 2 OpenMP threads

MPI task timing breakdown:
Section |  min time  |  avg time  |  max time  |%varavg| %total
---------------------------------------------------------------
Pair    | 37.904     | 49.611     | 59.808     |  81.1 |  7.47
Bond    | 0.82187    | 1.0743     | 1.8005     |  16.7 |  0.16
Kspace  | 349.13     | 358.09     | 373.5      |  31.5 | 53.95
Neigh   | 1.4173     | 1.5324     | 1.6052     |   4.4 |  0.23
Comm    | 93.283     | 99.795     | 107.99     |  34.6 | 15.03
Output  | 0.72358    | 0.72485    | 0.72671    |   0.1 |  0.11
Modify  | 121.58     | 127.76     | 131.86     |  19.2 | 19.25
Other   |            | 25.19      |            |       |  3.80

Nlocal:        40.5000 ave          50 max          29 min
Histogram: 1 1 2 3 7 6 3 5 0 4
Nghost:        3163.44 ave        3198 max        3135 min
Histogram: 1 3 5 5 8 3 3 1 0 3
Neighs:        13273.6 ave       16426 max        9583 min
Histogram: 1 1 2 3 7 6 5 3 2 2

Total # of neighbors = 424754
Ave neighs/atom = 327.74228
Ave special neighs/atom = 2.0000000
Neighbor list builds = 2911
Dangerous builds = 0

unfix		3
unfix		2
unfix		1

write_data	data.final.${pid}
write_data	data.final.0
System init for write_data ...
PPPM initialization ...
  extracting TIP4P info from pair style
  using 12-bit tables for long-range coulomb (../kspace.cpp:340)
  G vector (1/distance) = 0.37107071
  grid = 30 36 32
  stencil order = 5
  estimated absolute RMS force accuracy = 0.003759015
  estimated relative force accuracy = 1.1320162e-05
  using double precision FFTW3
  3d grid and FFT values/proc = 7344 1080
Last active /omp style is kspace_style pppm/tip4p/omp
WARNING: Not all mixed pair coeffs generated from mixing. Use write_data with 'pair ij' option to store all pair coeffs. (../write_data.cpp:312)

write_restart   restart.lmp.${pid}
write_restart   restart.lmp.0
System init for write_restart ...
PPPM initialization ...
  extracting TIP4P info from pair style
  using 12-bit tables for long-range coulomb (../kspace.cpp:340)
  G vector (1/distance) = 0.37107071
  grid = 30 36 32
  stencil order = 5
  estimated absolute RMS force accuracy = 0.003759015
  estimated relative force accuracy = 1.1320162e-05
  using double precision FFTW3
  3d grid and FFT values/proc = 7344 1080
Last active /omp style is kspace_style pppm/tip4p/omp
Total wall time: 0:11:03
