LAMMPS data file via write_data, version 30 Jul 2021, timestep = 9250000

864 atoms
2 atom types
576 bonds
1 bond types
288 angles
1 angle types

0.6659864971806897 17.541585902809224 xlo xhi
1.8759753940624968 21.753202405935035 ylo yhi
0.8125019709944805 21.40069382900724 zlo zhi

Masses

1 1.00794
2 15.9994

Pair Coeffs # lj/cut/tip4p/long/omp

1 0 0
2 0.21084 3.1668

Bond Coeffs # harmonic/omp

1 450 0.9572

Angle Coeffs # harmonic/omp

1 55 104.52

Atoms # full

317 1 1 0.5897 1.5500962827501175 2.589006605050452 4.5387298544684365 -8 -3 -4
736 1 2 -1.1794 1.4441793227076896 4.630581061579269 5.933772568933892 4 -2 -1
251 1 1 0.5897 3.643651407956923 5.840254967489207 4.077544216089587 4 -3 -2
316 1 2 -1.1794 2.362339563728489 2.1032307116040476 4.395132202144023 -8 -3 -3
737 1 1 0.5897 2.2338461390772304 4.719020943395646 5.399970389055053 4 -2 -1
624 1 1 0.5897 2.831607361448193 2.845791960337813 2.6469134647272883 5 -2 2
252 1 1 0.5897 4.4160142049899616 4.543273929266439 4.193359239533198 4 -3 -2
250 1 2 -1.1794 3.82512867210681 5.118439901701174 4.679521781286949 4 -3 -2
738 1 1 0.5897 0.7551486263865697 4.407373935988492 5.3078826842905515 4 -2 -1
318 1 1 0.5897 2.9579146365654854 2.426228909897241 5.071371005216564 -8 -3 -3
622 1 2 -1.1794 2.9411304514091428 2.6747574279369957 1.7114626783878508 5 -2 2
623 1 1 0.5897 2.84007831152684 3.5318609702295714 1.2973275736285748 5 -2 2
443 1 1 0.5897 1.7870015175048517 5.308830564086756 1.1161362459495932 2 5 1
442 1 2 -1.1794 2.707969532351372 5.100050219461645 0.9590195809621023 2 5 1
176 1 1 0.5897 1.1939985259953738 2.1109791321371865 1.2474143733398395 2 -5 9
206 1 1 0.5897 4.870068570769084 5.193393037202689 1.2673399198990647 -3 2 1
244 1 2 -1.1794 3.764412530230018 4.571991831860748 8.043533886415904 -3 0 -3
245 1 1 0.5897 3.8026746561892977 5.383111680375536 7.536630050055298 -3 0 -3
246 1 1 0.5897 4.518253040562612 4.620623847469044 8.631478439532184 -3 0 -3
664 1 2 -1.1794 0.9568021620045835 2.543141322205698 7.509535658227417 0 1 2
383 1 1 0.5897 0.7459965138152245 4.34175874842064 9.478183507159798 -6 -3 0
630 1 1 0.5897 3.9360904895861495 3.2828444290446974 6.953842959075057 -4 -1 -1
384 1 1 0.5897 2.0932427904275985 3.678965952124331 9.672477330903854 -6 -3 0
382 1 2 -1.1794 1.4384637655201882 4.210058586347232 10.125846739335724 -6 -3 0
615 1 1 0.5897 1.6591609650242052 6.461428952588805 6.474692450159247 -5 -2 3
628 1 2 -1.1794 3.9886778592449654 2.421213255819475 6.540135306426056 -4 -1 -1
665 1 1 0.5897 1.1524217427448233 3.412616343236368 7.160135412098034 0 1 2
360 1 1 0.5897 2.3969082283742678 6.658414357355444 9.576226610755176 6 -1 -3
387 1 1 0.5897 2.872897302261071 3.319824009736549 13.595330253901826 0 1 1
150 1 1 0.5897 1.8385452455015425 5.016638447697124 12.647902519727316 -3 -2 2
357 1 1 0.5897 3.458844108092823 6.521662700199911 16.04107983130509 4 -4 4
385 1 2 -1.1794 2.1348458104931414 3.2274225583338705 12.992767809242684 0 1 1
249 1 1 0.5897 3.984508622179448 5.6431042613788716 12.622226882878271 2 2 -3
148 1 2 -1.1794 1.8774865274190775 5.94817751364022 12.430986786396188 -3 -2 2
356 1 1 0.5897 3.3227981435737264 5.151499161982505 15.41150349307475 4 -4 4
247 1 2 -1.1794 4.863192759264443 5.321745074778733 12.419845073968556 2 2 -3
386 1 1 0.5897 2.5309887847214005 2.938686213788461 12.170551802483093 0 1 1
61 1 2 -1.1794 4.346051393866137 3.1657107866489076 14.490528089976104 -8 1 5
355 1 2 -1.1794 3.575043245906894 6.053607692319888 15.214183293865572 4 -4 4
63 1 1 0.5897 4.435000567958419 2.256062835621856 14.775088804366302 -8 1 5
149 1 1 0.5897 1.6070624926762693 5.9925367225162915 11.513797120371606 -3 -2 2
262 1 2 -1.1794 3.4300262219841517 5.424445684645262 18.918989181113353 -3 0 5
340 1 2 -1.1794 3.5775532703737767 2.762023788542419 18.034859356110957 2 6 -1
264 1 1 0.5897 3.446951116164508 6.244048599756214 18.424735502248623 -3 0 5
341 1 1 0.5897 3.375864629543698 3.69758234526053 18.054124580639964 2 6 -1
342 1 1 0.5897 2.9729073618581827 2.399445461481238 17.387359260436675 2 6 -1
77 1 1 0.5897 4.0936718937942 2.3422501511040656 20.732831459289585 -1 -2 -3
263 1 1 0.5897 4.351458205087782 5.184448392247873 19.017386009472695 -3 0 5
444 1 1 0.5897 2.835887030050039 5.266656920797304 20.613294705710466 2 5 0
78 1 1 0.5897 4.478379797108284 2.274748370236181 19.27010018453627 -1 -2 -3
495 1 1 0.5897 0.9713263033187014 2.903973368563035 16.845381943266823 -4 2 -1
493 1 2 -1.1794 1.003209464796744 3.7836980066379096 16.469365054482754 -4 2 -1
76 1 2 -1.1794 4.698356655625528 1.9120017383049905 20.128213451203138 -1 -2 -3
67 1 2 -1.1794 3.601361280312085 7.37145093227134 2.9978481234178376 5 -4 -1
346 1 2 -1.1794 1.4656060569083211 8.741467045178304 3.939482606071789 -5 2 -1
225 1 1 0.5897 4.343991051105888 9.745090998084024 4.853697208874178 6 1 -6
224 1 1 0.5897 3.4674563610413314 10.831883541792344 4.26826757012987 6 1 -6
348 1 1 0.5897 2.116026403259972 9.107449345745774 4.538924236469418 -5 2 -1
69 1 1 0.5897 3.95588092601033 7.750615009201036 2.1935626610601124 5 -4 -1
223 1 2 -1.1794 3.5316888034887652 10.227510245708324 5.007866104919296 6 1 -6
68 1 1 0.5897 2.731861324564851 7.762330183994649 3.0845065413526926 5 -4 -1
282 1 1 0.5897 1.376195213355341 9.479941422412455 1.2428071295634016 -2 -1 3
280 1 2 -1.1794 1.1088869038320648 10.308571315562281 1.6405939574265547 -2 -1 3
347 1 1 0.5897 1.1775292990659008 9.487464275160864 3.413348143582181 -5 2 -1
821 1 1 0.5897 4.876501925573402 8.910054004217466 1.019176732968237 -4 4 1
842 1 1 0.5897 2.154691398645131 6.946039528948238 0.8624934181413266 -7 3 0
359 1 1 0.5897 2.368366957557471 8.153374321149109 9.338559449219598 6 -1 -3
556 1 2 -1.1794 3.14636161566774 10.084531200691352 8.497615093882827 1 4 1
864 1 1 0.5897 4.826998766517473 7.719538776928823 6.666740063182423 6 2 3
557 1 1 0.5897 3.641926937978275 10.830154180143623 8.158801391633359 1 4 1
647 1 1 0.5897 3.7429526543554577 9.298118186892562 11.042494226284862 -6 2 -3
558 1 1 0.5897 2.5134747897617533 10.471863183844155 9.102387931324555 1 4 1
863 1 1 0.5897 4.238389712753972 8.555419974893763 7.783412579587592 6 2 3
358 1 2 -1.1794 1.9650955499217955 7.462629927217644 9.864501342117448 6 -1 -3
602 1 1 0.5897 3.8607927989912305 11.656914454588906 6.164576971583599 0 5 2
862 1 2 -1.1794 4.1781240225809455 7.694132399199915 7.3700434194720845 6 2 3
614 1 1 0.5897 2.4731216343407034 7.7215757038765895 6.678737793644969 -5 -2 2
613 1 2 -1.1794 1.5992865611402358 7.354718539639366 6.813472947763409 -5 -2 3
99 1 1 0.5897 0.9799729493389756 8.810317137917352 7.3430706596611905 1 -6 6
1 1 2 -1.1794 1.394738263575853 11.47263506521318 9.830006952730187 0 -5 4
320 1 1 0.5897 0.9389150859502386 11.208627738783289 7.139218344987802 -1 -4 1
625 1 2 -1.1794 4.293733357259395 8.334698557728501 13.73211941338806 0 -1 1
425 1 1 0.5897 1.350481655370806 10.11146652891391 14.533023233281655 6 -3 2
424 1 2 -1.1794 1.7940520090304422 9.742942057586554 15.297060057115479 6 -3 2
627 1 1 0.5897 3.9460864023951276 7.470743816316517 13.953602650168062 0 -1 1
626 1 1 0.5897 3.6815468359472985 8.680405689789039 13.082465316242594 0 -1 1
313 1 2 -1.1794 0.7531623385668982 6.996393846071843 15.1998833674164 -3 0 -2
660 1 1 0.5897 4.512464003799062 10.082237400518624 14.567922550217116 3 6 0
648 1 1 0.5897 3.5607157063516053 10.620507487555754 11.756810060265197 -6 2 -3
646 1 2 -1.1794 3.2350691600424617 9.720595979534298 11.735241518572241 -6 2 -3
426 1 1 0.5897 1.4560818972072542 8.849777411753548 15.363159903221748 6 -4 2
96 1 1 0.5897 1.0946998248102633 10.50102406156261 12.466632759064357 -6 -4 -5
658 1 2 -1.1794 4.661080616005413 11.027529763556254 14.593481728544166 3 6 0
314 1 1 0.5897 1.6489704057521304 6.864963221232997 14.889109846200752 -3 0 -2
332 1 1 0.5897 2.4754372286911144 10.95897089058301 21.267585098716197 1 -3 -5
226 1 2 -1.1794 3.0970240959807755 7.70959992263453 17.200724014051623 4 -4 0
228 1 1 0.5897 3.6980364482996673 8.249321651478603 17.714344861863914 4 -4 0
333 1 1 0.5897 2.989194671412217 10.8736521386749 19.8459950316143 1 -3 -5
227 1 1 0.5897 2.2700724669279158 7.747367026221383 17.681396906756667 4 -4 0
497 1 1 0.5897 4.668546127830059 9.135036840881146 19.582832483588284 3 2 0
331 1 2 -1.1794 3.2793443104073368 10.99948412233125 20.74950411135667 1 -3 -5
636 1 1 0.5897 2.3082336453759043 10.461013286307681 17.113561476630593 -10 2 6
498 1 1 0.5897 4.433279782060247 10.156860480632457 18.49074296115529 3 2 -1
843 1 1 0.5897 1.7481016288251063 7.5544138415771265 20.125287834992406 -7 3 -1
841 1 2 -1.1794 1.5974576220312016 7.623830515601614 21.068052705851905 -7 3 -1
634 1 2 -1.1794 2.3622293678130157 10.883706858728951 17.97072556477015 -10 2 6
496 1 2 -1.1794 4.87600456619678 9.326912641256255 18.668247542495635 3 2 0
820 1 2 -1.1794 4.700248588138846 8.060282648754411 21.203442576249444 -4 4 0
635 1 1 0.5897 2.62311898484944 11.784360624403654 17.778170588415144 -10 2 6
276 1 1 0.5897 1.9854757263080016 14.412313189484905 3.2167697945620257 -3 5 0
285 1 1 0.5897 3.5136457251706448 16.107895332163437 3.492878010412183 7 -1 0
574 1 2 -1.1794 3.3025623246770808 16.587346469742567 1.6915508740003358 -2 -1 -4
575 1 1 0.5897 3.217184538047158 16.121820557376573 0.8594809496161925 -2 -1 -4
275 1 1 0.5897 1.6605523192822236 14.065776523270095 1.7791852222962645 -3 5 0
274 1 2 -1.1794 1.5915076473716137 13.730053621496344 2.6730093537355444 -3 5 0
212 1 1 0.5897 4.377871649051039 12.796726180528792 3.6091854309565936 7 0 7
283 1 2 -1.1794 3.5606170814218174 15.7473626538208 4.378387794300724 7 -1 0
470 1 1 0.5897 0.8783423299937213 12.294456232080174 3.9735843503831565 3 -9 4
211 1 2 -1.1794 3.8151598178624253 12.152519362516424 3.1794483935908864 7 0 7
833 1 1 0.5897 1.0368486602431217 15.953438672714926 5.280530190721103 4 -2 0
832 1 2 -1.1794 0.6924548106348126 15.133391980224417 5.634411899692754 4 -2 0
284 1 1 0.5897 3.2231925939442023 16.445332527744903 4.939904255248302 7 -1 0
213 1 1 0.5897 3.0845067639141677 12.665032733333096 2.833315252872702 7 0 7
812 1 1 0.5897 3.249298422361545 13.736027911161067 6.965580815307648 -10 4 -2
210 1 1 0.5897 3.2206590371407167 12.440658859142195 10.835429096165127 4 -1 1
811 1 2 -1.1794 2.841305731646813 14.595637569986673 7.070293539680572 -10 4 -2
432 1 1 0.5897 3.2821469436827737 15.479385289672617 9.023263344650987 -9 -3 0
319 1 2 -1.1794 0.7637720207700724 12.143719267824867 7.033106164523065 -1 -4 1
834 1 1 0.5897 1.4241700600576048 14.757032138226698 6.123563355777706 4 -2 0
430 1 2 -1.1794 3.9791589503347593 15.68197858248181 9.6473299187769 -9 -3 0
813 1 1 0.5897 3.5614923906518015 15.217516973662505 6.965481609030841 -10 4 -2
805 1 2 -1.1794 0.8180187912423906 13.926483392055912 10.85026028198697 4 -3 -3
2 1 1 0.5897 1.4755968748880646 11.827489274198403 8.944621088369022 0 -5 4
431 1 1 0.5897 4.786258493799421 15.441789685822945 9.1920395834923 -9 -3 0
601 1 2 -1.1794 4.30620960771423 12.132485451815878 6.8658346798629335 0 5 3
670 1 2 -1.1794 0.8564998287198193 16.25700145995509 8.721458384704974 5 1 -1
671 1 1 0.5897 0.8102867361617279 15.326248226811897 8.940279966281707 5 1 -1
806 1 1 0.5897 1.0134947676197612 12.994785489410173 10.749951137471992 4 -3 -3
638 1 1 0.5897 2.880683401477154 15.746399008750842 12.759398918048682 -4 -3 1
376 1 2 -1.1794 2.9139767619304213 12.886415704010792 13.814823707773332 4 1 0
637 1 2 -1.1794 1.9283721420776327 15.820661610629422 12.821959225082919 -4 -3 1
715 1 2 -1.1794 3.4394351295172343 15.032123535601805 15.753556339861767 8 -10 -6
60 1 1 0.5897 1.2231548649379234 13.382639455769795 14.255376240612282 0 -7 -2
514 1 2 -1.1794 4.571470759086157 15.480321138062918 12.237865374271108 -1 -6 -2
378 1 1 0.5897 3.0808249627237045 13.644280297077511 14.375336961018801 4 1 0
717 1 1 0.5897 4.31630998059139 14.654206746556678 15.68571846049766 8 -10 -6
377 1 1 0.5897 3.5018662262018982 12.207991504959677 14.147209207959778 4 1 0
689 1 1 0.5897 3.7779716431445403 16.69229326447539 15.365348441695078 5 0 2
515 1 1 0.5897 4.215892872486691 15.61898496128012 11.35997969956715 -1 -6 -2
209 1 1 0.5897 3.801125402510246 12.735044136598392 12.202363084981764 4 -1 1
639 1 1 0.5897 1.7098704361928658 16.57423432692603 12.273597142346917 -4 -3 1
208 1 2 -1.1794 4.026871351423625 12.370096051817514 11.346682918354919 4 -1 1
807 1 1 0.5897 1.2482431044630007 14.17523460196508 11.668408515672324 4 -3 -3
839 1 1 0.5897 0.8802607090640656 16.103229539409618 14.258047520415111 -1 -3 -2
773 1 1 0.5897 4.060931786705133 13.091171456630153 17.958183199830557 4 -1 4
181 1 2 -1.1794 1.171328292584293 15.458795682003194 20.7839346783149 -3 -1 -3
258 1 1 0.5897 2.419365715120465 16.213957275445715 19.641636321653557 4 -1 -2
256 1 2 -1.1794 3.2520474283064282 16.633070617107425 19.424133514950974 4 -1 -2
182 1 1 0.5897 1.09095849312485 14.548169224282566 20.499993374892405 -2 -1 -3
716 1 1 0.5897 3.0700869981435828 14.64090760197057 16.54530207453945 8 -10 -6
774 1 1 0.5897 3.3517836441257938 13.73542535616476 19.130427719253 4 -1 4
9 1 1 0.5897 3.5407703057771722 12.789058810366322 20.9371265772929 3 -3 -1
772 1 2 -1.1794 3.241368344191579 13.520226626207375 18.204239693963252 4 -1 4
269 1 1 0.5897 1.323058024684375 14.054221714860013 17.556067451597464 1 4 6
268 1 2 -1.1794 0.7147954152434366 14.676310918711424 17.15688651021788 1 4 6
7 1 2 -1.1794 3.691859781800905 13.71833789367017 20.764049174927997 3 -3 -1
8 1 1 0.5897 4.588492133589934 13.875016578865516 21.060453212675192 3 -3 -1
576 1 1 0.5897 2.725450280123291 17.34585900246399 1.6024935115198389 -2 -1 -4
642 1 1 0.5897 4.135582780105601 20.90675411293019 1.9813234939423836 4 4 -3
640 1 2 -1.1794 4.74367745391931 20.410083488990225 2.5289133374229116 4 4 -3
663 1 1 0.5897 2.698691698543525 18.76095112410412 4.347284902366992 1 -3 -1
310 1 2 -1.1794 1.3729766666907743 18.606880060070456 1.0808973677954534 1 3 6
311 1 1 0.5897 0.751729907738848 18.871482969458025 1.759405515752471 1 3 6
641 1 1 0.5897 4.223304372037758 20.147644684990322 3.288290319966782 4 4 -3
662 1 1 0.5897 3.0060237490680537 20.235517294651284 4.500273595454863 1 -3 -1
661 1 2 -1.1794 3.4137639325483558 19.37000352904397 4.531934626939236 1 -3 -1
568 1 2 -1.1794 1.3649799829637517 17.592502730915342 4.493587764896409 6 1 0
570 1 1 0.5897 0.8439516912569089 17.24865945179983 3.7678739161996613 6 1 0
569 1 1 0.5897 0.7185038112714146 17.868182972914614 5.143604071493462 6 1 0
47 1 1 0.5897 3.56492781379729 18.857555213647082 9.280167184225347 1 -1 0
46 1 2 -1.1794 4.290280060329991 18.608024111051435 9.852807727512273 1 -1 0
14 1 1 0.5897 3.2694560352470248 20.879632737607793 7.564226497549076 2 -9 -10
544 1 2 -1.1794 2.719964451943591 17.506728748679834 7.092820298159919 -5 2 4
15 1 1 0.5897 2.00652211315633 20.462202433630086 8.28734924278097 2 -9 -10
87 1 1 0.5897 4.544795455470288 17.009363806702723 6.9835326909354025 -4 4 3
13 1 2 -1.1794 2.8723668180898723 20.144372823417893 8.031184409731207 2 -9 -10
48 1 1 0.5897 4.234235297989732 17.65406950272946 9.909312407130043 1 -1 0
545 1 1 0.5897 2.590141155383267 18.455067126828506 7.081802535159865 -5 2 4
546 1 1 0.5897 2.0939270463799406 17.186312823325338 7.742237144385773 -5 2 4
572 1 1 0.5897 3.2038835308801437 21.126725637062357 9.442216877229544 -4 -3 -5
267 1 1 0.5897 0.6701195575478737 19.360041882331632 10.1518520490231 -2 -4 1
92 1 1 0.5897 1.1121369932896403 17.385253096587903 10.26697871918721 7 -1 1
571 1 2 -1.1794 3.254684652196381 21.74893134917404 10.167905022699571 -4 -3 -5
573 1 1 0.5897 3.9769430702598654 21.428780397315073 10.708430770269791 -4 -3 -5
10 1 2 -1.1794 4.729587943750625 20.544224394524285 15.268476605669944 -4 1 5
465 1 1 0.5897 1.845482496944051 21.45062391894163 13.593762406711287 7 6 0
688 1 2 -1.1794 4.003430513615035 17.595800155393334 15.143450012199148 5 0 2
464 1 1 0.5897 2.3506101132479715 20.03194771083479 13.437793529519094 7 6 0
759 1 1 0.5897 3.6104193952360077 18.535507937736924 11.880347749381214 3 2 6
758 1 1 0.5897 4.440880499443983 19.698651857368965 12.379884214552025 3 2 6
11 1 1 0.5897 4.350276916280745 19.69276658282232 15.050625048889751 -4 1 5
690 1 1 0.5897 4.115638280521646 17.588575839933437 14.19282806143584 5 0 2
757 1 2 -1.1794 3.8318758140457216 19.021531676633472 12.674741798431109 3 2 6
463 1 2 -1.1794 1.7829455767220146 20.57784476087192 13.98192311081775 7 6 0
173 1 1 0.5897 2.1144433946367887 20.927552355369524 15.719438636633553 6 -1 -1
91 1 2 -1.1794 1.1330235771412718 17.832507353355354 11.113053919927479 7 -1 1
827 1 1 0.5897 3.916236245254232 20.277881906175452 19.5472921886699 -4 -2 1
826 1 2 -1.1794 3.4061876141831022 19.52027287597983 19.26054336378641 -4 -2 1
174 1 1 0.5897 2.112395837544907 20.161459416148208 17.025275348127813 6 -1 -1
257 1 1 0.5897 3.21762221346062 17.480232815056663 19.868491850247317 4 -1 -2
828 1 1 0.5897 2.4992548230171563 19.826566914164044 19.26321457892289 -4 -2 1
491 1 1 0.5897 2.391447677653629 17.365187264277658 17.73001809160005 4 2 4
490 1 2 -1.1794 2.064004847392061 17.916599362625657 17.019351239359153 4 2 4
172 1 2 -1.1794 1.883114661674301 21.009348087292885 16.64470817344583 6 -1 -1
592 1 2 -1.1794 0.7262062337770746 20.052082836789396 19.485319160894207 -2 -4 -3
312 1 1 0.5897 1.1814014790986973 19.184213365957543 20.929960499190244 1 3 5
483 1 1 0.5897 4.8014925614753325 19.09017210145766 18.02004645028652 2 4 -2
492 1 1 0.5897 2.7284677046823895 17.844576017356463 16.334056283582488 4 2 4
279 1 1 0.5897 7.951109648595194 4.080562584078871 4.632500270876329 0 3 -1
278 1 1 0.5897 7.062096286394688 3.3957754673486424 3.616196320104024 0 3 -1
25 1 2 -1.1794 5.4225569409175 3.278801064557815 3.356844726880809 1 6 2
27 1 1 0.5897 5.27716903861275 2.3442697355835143 3.208998256955541 1 6 2
205 1 2 -1.1794 5.623183465778984 4.669001015985655 0.9950276745269965 -3 2 1
782 1 1 0.5897 5.386469744136689 5.273046303691058 5.86149314719295 -7 1 -1
796 1 2 -1.1794 6.406462383500429 6.650166542589043 3.403249608247612 -1 -4 -4
783 1 1 0.5897 6.7695142947362745 5.734385928660521 5.453488838278728 -7 1 -1
26 1 1 0.5897 5.365196746507863 3.671373319627701 2.4856724502248015 1 6 2
277 1 2 -1.1794 7.969600517911847 3.655809457878468 3.774789659350597 0 3 -1
605 1 1 0.5897 8.449323989326452 3.558393343722268 0.9125984374398095 -4 2 -3
537 1 1 0.5897 7.4820477579614835 6.150233109992242 0.8795596059336788 5 6 5
198 1 1 0.5897 6.523562262034938 3.6620531431431527 6.773783437118263 0 -4 0
71 1 1 0.5897 5.280096680584546 4.506994959720469 10.868899171281715 0 1 -4
22 1 2 -1.1794 7.933218707379 5.969843891109567 10.934150865963657 -1 5 2
303 1 1 0.5897 6.582910006576748 6.349394144239862 7.712105064298696 0 4 5
196 1 2 -1.1794 6.757620424499551 2.7641884212616414 7.009154578614948 0 -4 0
72 1 1 0.5897 6.212903948914238 3.649844215817149 10.039867755407773 0 1 -4
70 1 2 -1.1794 5.7086161895266905 4.463089653217951 10.014043598898457 0 1 -4
24 1 1 0.5897 7.1932738977866295 5.365970944637902 10.99872888930811 -1 5 2
302 1 1 0.5897 7.159004227110571 6.357974010856657 9.112172923196882 0 4 5
760 1 2 -1.1794 7.237420864054083 1.9974534643917627 9.703501072962618 2 -4 -1
197 1 1 0.5897 6.924230021614538 2.7986870554190837 7.951160927249643 0 -4 0
781 1 2 -1.1794 6.2985985036349135 5.2795447036738565 6.151831141719113 -7 1 -1
629 1 1 0.5897 4.886231508925114 2.1311132729223248 6.703101475659516 -4 -1 -1
370 1 2 -1.1794 7.151826354073853 3.5002886807768725 12.53126606256708 0 6 -1
437 1 1 0.5897 5.891101849293933 2.20369265246055 12.172381151269875 -3 5 2
162 1 1 0.5897 8.511724430267453 3.2327374429353504 14.462640629291798 1 10 2
371 1 1 0.5897 8.008892194443852 3.074121954516956 12.519451085239858 0 6 -1
372 1 1 0.5897 7.284754347794796 4.292240918455374 13.052335312359965 0 6 -1
731 1 1 0.5897 7.165985652528593 6.250378454348282 14.741451582251507 1 2 -4
730 1 2 -1.1794 7.643688815295966 6.067930061468626 13.932226058971017 1 2 -4
62 1 1 0.5897 5.07902817505769 3.619959582620843 14.90612913196657 -8 1 5
23 1 1 0.5897 7.622234314548335 6.7755312654094455 11.347082450816503 -1 5 2
241 1 2 -1.1794 6.828272259726372 3.3747450624447586 15.935627238992168 -4 1 2
749 1 1 0.5897 5.256429037018076 6.472426577010626 15.794642654881075 6 6 1
248 1 1 0.5897 5.164034229354625 4.917027718953824 13.233488547007209 2 2 -3
732 1 1 0.5897 7.476279363252261 6.830022498212519 13.37767779277421 1 2 -4
236 1 1 0.5897 6.7476290490404685 4.455861949628283 19.07631650352674 0 -4 -6
242 1 1 0.5897 7.467456504425678 4.012174846530073 16.254137744269123 -4 1 2
652 1 2 -1.1794 7.900972560865425 2.8913247255470154 18.846810334112483 -4 0 -1
374 1 1 0.5897 6.441159764819448 1.9133838830276915 21.369323515639486 1 10 -1
654 1 1 0.5897 8.410672059461644 3.5370468138056745 18.35735181053007 -4 0 -1
235 1 2 -1.1794 6.1082139374298094 5.128407233778701 18.84148211556945 0 -4 -6
237 1 1 0.5897 6.457297181893255 5.522778961727246 18.042147464714013 0 -4 -6
243 1 1 0.5897 6.327126375676716 3.128360297107669 16.713106706201025 -4 1 2
604 1 2 -1.1794 8.725765565282769 4.293631067196034 20.953675937102147 -4 2 -4
207 1 1 0.5897 5.683770735406371 4.808673287434732 20.6381590878159 -3 2 0
653 1 1 0.5897 8.056800641187978 3.109148639460238 19.765829251608288 -4 0 -1
748 1 2 -1.1794 6.067352051994097 6.315061024377773 16.278343983346275 6 6 1
286 1 2 -1.1794 7.096600823876622 11.053633042859513 5.645091201710772 3 1 4
409 1 2 -1.1794 5.818604122342172 10.302386302866163 1.642483281266411 8 0 -5
410 1 1 0.5897 5.039161648342361 10.831157726871995 1.8134617393468135 8 0 -5
287 1 1 0.5897 7.5201106156734 11.292673047346886 4.820580552905787 3 1 4
729 1 1 0.5897 6.364336353323176 9.46178165791078 5.440206812726031 -1 1 1
728 1 1 0.5897 6.395079572941646 8.05005605111628 4.894135711927628 -1 1 1
129 1 1 0.5897 7.360447229245321 9.412021251548694 2.517263008531468 -1 -1 -4
127 1 2 -1.1794 8.209106496144203 9.324933538993854 2.9514646260028057 -1 -1 -4
128 1 1 0.5897 8.841648638723875 9.645678433364122 2.3085465720268914 -1 -1 -4
727 1 2 -1.1794 5.840453677911053 8.663139842283783 5.376670843407051 -1 1 1
686 1 1 0.5897 9.086244335555646 10.444036036242874 4.259296453918516 10 -5 0
41 1 1 0.5897 8.99793228215209 7.689710630179326 3.0241209616488502 -2 -1 2
798 1 1 0.5897 5.482599864963158 6.896668750269757 3.3580390072739426 -1 -4 -4
797 1 1 0.5897 6.763631337872942 6.900485928814598 2.551138912670246 -1 -4 -4
535 1 2 -1.1794 7.241924375512584 7.076181817843081 0.8437471352620918 5 6 5
411 1 1 0.5897 6.2581929479192615 10.749714784171246 0.9193083229521264 8 0 -5
187 1 2 -1.1794 5.612670676271844 8.745063146378373 9.688613442106927 -6 4 -3
696 1 1 0.5897 8.381050475211747 8.309585494758945 9.470431618917312 -1 -5 0
49 1 2 -1.1794 6.920994855911517 11.012796613200637 9.374740283499303 4 6 2
695 1 1 0.5897 8.078571844524689 9.646564671041283 10.11325119988789 -1 -5 0
712 1 2 -1.1794 8.450982235304082 7.561416949138769 5.999839919625031 -5 -1 2
694 1 2 -1.1794 8.689390180632824 8.910291140259773 10.148964865292463 -1 -5 0
288 1 1 0.5897 7.438535437011414 11.681696832108637 6.281445020769877 3 1 4
189 1 1 0.5897 5.870815056435732 8.196233093588003 8.948027417666465 -6 4 -3
188 1 1 0.5897 6.1650677935414455 8.44779781326275 10.411671455035712 -6 4 -3
50 1 1 0.5897 6.235743043740884 10.348714489201136 9.450560483627898 4 6 2
612 1 1 0.5897 8.615582829696095 11.415981220192117 11.057628549484976 5 2 2
714 1 1 0.5897 7.659643495717246 8.020829513431543 6.28102959853877 -5 -1 2
301 1 2 -1.1794 7.009137706286065 6.919879725085983 8.351816552791824 0 4 5
336 1 1 0.5897 6.84803504226744 8.978926701612918 12.471663502896487 9 2 3
334 1 2 -1.1794 6.616097856159508 8.104502055020053 12.158757221094545 9 2 3
154 1 2 -1.1794 8.290786105572682 11.787785283299192 15.924698787603024 6 1 -1
305 1 1 0.5897 8.89616720903743 10.426645994616152 15.026906745776218 4 -2 -6
124 1 2 -1.1794 7.048660071443658 10.918209881531055 12.728997574164442 -4 -2 -1
335 1 1 0.5897 5.748003956505973 7.940197707410289 12.527192639322607 9 2 3
125 1 1 0.5897 6.239501571203407 10.89537905379089 13.239964938584635 -4 -2 -1
659 1 1 0.5897 4.909417234732319 11.207001168260554 15.500365677390368 3 6 0
126 1 1 0.5897 7.069166399181628 11.79748431866348 12.351128139925022 -4 -2 -1
526 1 2 -1.1794 7.09206428296947 8.380962239756673 17.61927459154689 -2 -4 0
513 1 1 0.5897 8.972707141840644 7.8234846987950855 16.86463428218174 -2 7 -4
468 1 1 0.5897 7.73659456071796 11.710878605292718 19.57261436089363 6 -3 5
155 1 1 0.5897 8.265103485268284 11.48362999504551 16.832000936664762 6 1 -1
528 1 1 0.5897 7.429232522651697 7.944056305012681 18.401422445330127 -2 -4 0
822 1 1 0.5897 5.539583271233635 7.601070316372848 21.234502633461588 -4 4 0
466 1 2 -1.1794 6.822892019720241 11.715371655767113 19.858019826782723 6 -3 5
527 1 1 0.5897 6.331439461762543 8.873138436883881 17.928373798579578 -2 -4 0
536 1 1 0.5897 7.786282071853968 7.438419362384029 20.732812751375327 5 6 4
750 1 1 0.5897 6.287137152791494 7.164469831050853 16.661159897105627 6 6 1
200 1 1 0.5897 5.7093340349725965 11.80700542516273 18.232510299171658 -2 -3 2
441 1 1 0.5897 8.53592830736877 14.811219900650784 3.304897755955761 1 -2 -4
543 1 1 0.5897 6.869843017921711 12.920974979065944 3.254344912575307 -6 2 5
362 1 1 0.5897 8.601343438937715 12.551604451108412 1.6087935218955074 4 -4 0
439 1 2 -1.1794 7.993544632891821 15.415913293117345 2.798440992829123 1 -2 -4
55 1 2 -1.1794 5.569626626789446 14.027282524522315 4.399177140089224 -4 -4 0
56 1 1 0.5897 5.813658371783736 13.829347607941967 5.3033930439895425 -4 -4 0
542 1 1 0.5897 8.316419044401332 12.63517561273134 3.5977120271161644 -6 2 5
530 1 1 0.5897 6.7770965937026695 14.733389111916738 1.416833314983525 0 -4 -3
541 1 2 -1.1794 7.564566237564719 12.274768362183867 3.1274104780729353 -6 2 5
719 1 1 0.5897 7.161133553871842 16.395537964309966 4.04620293056713 0 1 1
440 1 1 0.5897 8.578787945901247 15.75234414056134 2.1197420962321267 1 -2 -4
57 1 1 0.5897 4.930977570394907 14.73656865976496 4.472702602073689 -4 -4 0
784 1 2 -1.1794 5.929898055582885 13.37331806448342 9.447086877836872 5 6 5
608 1 1 0.5897 8.536255537754432 14.758451473165884 9.004102553294228 2 7 3
402 1 1 0.5897 7.358083687305732 14.23696036894052 6.876468734357663 -2 -2 3
401 1 1 0.5897 6.3737517686031255 13.581102975173328 7.821480761273697 -2 -2 3
113 1 1 0.5897 7.650665385319461 16.67820891571293 9.002753172000414 -3 -2 3
785 1 1 0.5897 6.497648053123537 13.832181045004798 10.066316559508929 5 6 5
112 1 2 -1.1794 7.153308464300175 15.917489454997705 8.702277381145377 -3 -2 3
400 1 2 -1.1794 6.785145663844093 13.475084621976707 6.963674862608465 -2 -2 3
603 1 1 0.5897 5.23808334542037 12.017289625917327 6.679670064824451 0 5 3
114 1 1 0.5897 6.613688906260354 16.25139048538616 7.98558430710274 -3 -2 3
36 1 1 0.5897 8.700970455414996 16.543678601382094 6.673209369510544 -2 0 -2
85 1 2 -1.1794 5.304147955181314 16.44524721577008 6.836945597325917 -4 4 3
786 1 1 0.5897 5.132049616390876 13.190191140881652 9.943296803433382 5 6 5
39 1 1 0.5897 8.594430846506846 12.539660652436929 7.553336195500084 -4 4 -2
34 1 2 -1.1794 9.04872341081465 15.668144412035954 6.503396980928782 -2 0 -2
86 1 1 0.5897 5.638151909569936 16.710269562151296 5.979889635356138 -4 4 3
51 1 1 0.5897 6.445765692569695 11.838967346995819 9.285659695806624 4 6 2
516 1 1 0.5897 5.4729552414892835 15.79788362407396 12.184602287685044 -1 -6 -2
803 1 1 0.5897 7.430764124539693 16.24042255002091 11.879245829172408 7 -3 -7
163 1 2 -1.1794 7.003520337575459 13.703825781789558 12.072689233787592 -1 5 -1
157 1 2 -1.1794 5.887128694696965 13.83746001468264 15.458112594981543 2 2 -1
158 1 1 0.5897 6.52389056600433 13.175355572329932 15.188848983446821 2 2 -1
216 1 1 0.5897 9.059418881472189 15.094060425642718 14.00927477404005 6 -4 -1
164 1 1 0.5897 6.172816744006286 13.834864646927569 12.529937547008743 -1 5 -1
215 1 1 0.5897 8.807320468419668 14.16595874054315 15.178550291052737 6 -4 -1
159 1 1 0.5897 6.356694903571651 14.667934461991885 15.37969773416199 2 2 -1
165 1 1 0.5897 7.671791798980761 13.851957993940642 12.741878460534512 -1 5 -1
214 1 2 -1.1794 8.721254208799383 14.22541304021258 14.227032001785616 6 -4 -1
201 1 1 0.5897 5.725152151745129 12.763635184531585 17.059149563337698 -2 -3 2
531 1 1 0.5897 6.19041892643829 14.686041458228882 20.61014398625037 0 -4 -4
102 1 1 0.5897 6.459474009874539 15.911399309023063 18.681091213049065 3 -3 -3
701 1 1 0.5897 8.780649573712825 15.9594440104085 20.225579217537422 0 0 2
259 1 2 -1.1794 8.618026691818105 14.31539708912346 17.075647163452075 2 -1 6
100 1 2 -1.1794 5.8631571553622495 15.226235657322151 18.983338964341094 3 -3 -3
261 1 1 0.5897 8.46780467772851 15.25422616253723 17.186788353861047 2 -1 6
101 1 1 0.5897 4.988778969183605 15.586915260717147 18.836041811796918 3 -3 -3
199 1 2 -1.1794 5.307521023243687 11.963418635964269 17.377864823957445 -2 -3 2
260 1 1 0.5897 8.296499611626466 13.923136380249238 17.887481463504017 2 -1 6
467 1 1 0.5897 6.73861459696631 12.512935037049573 20.380616334509703 6 -3 5
700 1 2 -1.1794 9.041925630343771 15.040962612649109 20.15876745970474 0 0 2
529 1 2 -1.1794 6.35095955800431 14.143990144233225 21.382653081763877 0 -4 -4
669 1 1 0.5897 7.926906311979899 21.38153992940685 3.846311788978562 -11 -1 1
564 1 1 0.5897 7.5296873469640495 17.999765612402527 5.570963325455994 4 2 6
809 1 1 0.5897 6.3938873178515045 20.135087181994127 4.933702873391575 2 0 -1
375 1 1 0.5897 7.330184630876915 21.114524444653245 1.8032117080147807 1 9 0
667 1 2 -1.1794 7.454769358777504 20.670574465812315 3.4128009871355944 -11 -1 1
718 1 2 -1.1794 6.632657219608768 17.13386878882141 4.34936386611245 0 1 1
587 1 1 0.5897 5.403999792614478 18.78369633727123 2.027973388460418 0 0 7
720 1 1 0.5897 6.158099206784633 17.425064875982095 3.570696287718426 0 1 1
668 1 1 0.5897 8.128228701021936 20.018601530093136 3.218637102584891 -11 -1 0