LAMMPS data file via write_data, version 30 Jul 2021, timestep = 13250000

972 atoms
2 atom types
648 bonds
1 bond types
324 angles
1 angle types

0.07014420491564799 19.92985679507634 xlo xhi
0.11877144541720952 19.881229554559695 ylo yhi
0.08510546003796904 20.614892539964508 zlo zhi

Masses

1 1.008
2 15.999

Pair Coeffs # lj/cut/tip4p/long/omp

1 0 0
2 0.21084 3.1668

Bond Coeffs # harmonic/omp

1 450 0.9572

Angle Coeffs # harmonic/omp

1 55 104.52

Atoms # full

10 4 2 -1.1794 1.232882438857003 3.81660839131983 3.830927962520364 0 0 0
11 4 1 0.5897 1.1731373068336106 2.9654506598664883 3.3970290841550854 0 0 0
31 11 2 -1.1794 1.221803676450305 1.8733764204608216 1.8572037585194177 0 0 0
33 11 1 0.5897 1.8324794996129496 2.208931512343893 1.2009108542787164 0 0 0
23 8 1 0.5897 2.762365678009435 1.1729711042988997 4.360320065846724 0 0 0
12 4 1 0.5897 2.1515820802620955 4.069169759144334 3.7385087242996247 0 0 0
16 6 2 -1.1794 3.7568130214042412 4.502385742322602 3.334505661012883 0 0 0
18 6 1 0.5897 3.9627426872467018 3.5878932120315 3.140557871181462 0 0 0
15 5 1 0.5897 4.478997044097352 6.92149830202033 1.7745735983219204 0 0 0
140 47 1 0.5897 1.1263204144505106 8.810704147048334 2.5661167572333614 0 0 0
20 7 1 0.5897 1.142180007069952 4.927054170544175 2.450772368505059 0 0 0
5 2 1 0.5897 4.327619000068894 1.127240708294872 2.76643012905021 0 0 0
132 44 1 0.5897 1.2790922456680234 7.201430263854105 4.969915042722134 0 0 0
4 2 2 -1.1794 4.1863791507074435 1.7860556524784932 3.4463029677295567 0 0 0
13 5 2 -1.1794 4.808682515889361 6.098543655396483 1.4134903282174314 0 0 0
14 5 1 0.5897 4.30002094275896 5.966716888112854 0.6134485092520092 0 0 0
111 37 1 0.5897 3.7295706691395014 9.400430824407225 0.12412416796936146 0 0 0
110 37 1 0.5897 2.376306837412337 9.098483086841206 0.7320599104044482 0 0 0
19 7 2 -1.1794 0.9967733526272224 5.61954218915364 1.806134374319 0 0 0
139 47 2 -1.1794 0.8663331957426046 8.351467066277166 1.7675665552263446 0 0 0
113 38 1 0.5897 4.9105112950362315 8.106477159865811 3.5913576659311595 0 0 0
17 6 1 0.5897 4.145400197251972 4.994558497075383 2.6113334215684936 0 0 0
114 38 1 0.5897 3.398744087721229 8.031854322851466 3.625994099402149 0 0 0
112 38 2 -1.1794 4.129956242219993 8.324350832181636 3.0818946106877063 0 0 0
3 1 1 0.5897 3.8079831643515925 2.796393975426079 0.2565991962845206 0 0 0
141 47 1 0.5897 0.8231945015476909 7.430129100923725 2.023692206681206 0 0 0
674 225 1 0.5897 2.2718118275978463 5.755780712761565 0.2846883625800334 0 0 1
21 7 1 0.5897 0.07665802603763582 5.527624193850896 1.5586181005702946 0 0 0
32 11 1 0.5897 0.35530748506254756 2.0366289355818177 1.4845819251483183 0 0 0
130 44 2 -1.1794 2.2100203416680433 7.16763067235116 4.749536682933562 0 0 0
22 8 2 -1.1794 2.101085923119374 1.025438248438981 5.036465921065698 0 0 0
81 27 1 0.5897 0.181337661060804 4.589602970085341 5.194391414510705 1 0 0
9 3 1 0.5897 4.957301188927211 4.8466575967490515 4.782892213488429 0 0 0
6 2 1 0.5897 4.85934250927089 1.6024610161466981 4.1017770122618495 0 0 0
131 44 1 0.5897 2.530033295986384 6.374924402563828 5.1802528390954565 0 0 0
102 34 1 0.5897 0.14175267901391547 0.8141327131254732 4.867301555176883 1 0 0
325 109 2 -1.1794 2.668930395657104 2.4320735152371813 7.297534981866803 0 0 0
326 109 1 0.5897 2.5803283587104553 1.8809040478966605 6.520009297248148 0 0 0
327 109 1 0.5897 3.6128754904640386 2.5555828083202656 7.397867731962801 0 0 0
355 119 2 -1.1794 0.6088463545680145 1.9382088604923369 8.982074060627626 0 0 0
356 119 1 0.5897 1.2758446541263495 2.1808874063747736 8.339842774721879 0 0 0
27 9 1 0.5897 2.759918884832915 3.9972729070594846 6.477171090720137 0 0 0
328 110 2 -1.1794 4.32539038490396 1.9293530921971167 9.895257046355471 0 0 0
468 156 1 0.5897 4.3596152546437885 9.054557543930239 7.65802763067418 0 0 0
337 113 2 -1.1794 4.461968013609338 5.9979151377332345 8.540027567446833 0 0 0
344 115 1 0.5897 0.8477947888294605 5.301520956045827 9.235639130750156 0 0 0
438 146 1 0.5897 4.1500074375289655 8.942784235723185 10.229140996192415 0 0 0
25 9 2 -1.1794 2.7726513738315353 4.954434439767303 6.483111459298281 0 0 0
339 113 1 0.5897 4.1221113897164985 5.667794077911187 7.708359693507775 0 0 0
433 145 2 -1.1794 2.8110323994783974 8.649413636055119 7.015058203436357 0 0 0
24 8 1 0.5897 2.344931442568849 0.18853922019382452 5.4320222510163605 0 0 0
26 9 1 0.5897 2.161356854129582 5.1982709057400625 7.17813245202316 0 0 0
437 146 1 0.5897 4.251935155606887 7.549369331233541 9.645937999628755 0 0 0
343 115 2 -1.1794 0.9109842528826333 5.7502465474133215 8.392545171187974 0 0 0
464 155 1 0.5897 1.5723418974755488 8.537198491968597 8.403274033462207 0 0 0
435 145 1 0.5897 2.676138738989693 8.166895245956608 6.199489690430813 0 0 0
330 110 1 0.5897 4.322464527287298 1.2485570137118416 9.222396626386233 0 0 0
345 115 1 0.5897 0.9318868621371994 6.68064895940608 8.61673338440987 0 0 0
463 155 2 -1.1794 0.9092187394898518 8.400925216229398 9.079941026322844 0 0 0
561 187 1 0.5897 0.797440977777574 0.15525036173672568 8.686407113123073 0 1 0
342 114 1 0.5897 3.7680707643796834 5.209561943828757 9.914879428637091 0 0 0
465 155 1 0.5897 0.07871261072792635 8.592586749739588 8.644271665434259 0 0 0
434 145 1 0.5897 2.5595229906972983 9.549108658132798 6.806137731456357 0 0 0
341 114 1 0.5897 3.7277951627651857 3.7381550667398336 10.269191639583504 0 0 0
335 112 1 0.5897 0.8266801713648011 3.3811961896776417 10.17400859329053 0 0 0
443 148 1 0.5897 1.0376280785695593 9.911663627694242 10.153508589393427 0 0 0
649 217 2 -1.1794 2.622685703354412 2.2450214281539056 13.936694638298116 0 0 0
650 217 1 0.5897 2.6807630375574933 1.4982043088053048 13.340747052950576 0 0 0
651 217 1 0.5897 1.8783266008131052 2.0424207181264986 14.503398876277226 0 0 0
346 116 2 -1.1794 2.4774983983793644 0.6846059225415975 11.451917656238622 0 0 0
789 263 1 0.5897 1.0407665913508453 8.823950067908191 15.23377732111629 0 0 0
348 116 1 0.5897 2.969206419016478 1.1471629345094294 10.773316605923226 0 0 0
347 116 1 0.5897 1.5591339523551622 0.8343049786350539 11.227146445543658 0 0 0
792 264 1 0.5897 4.284477550940862 8.761850168491101 14.425860896771194 0 0 0
329 110 1 0.5897 4.854301913303373 1.563599169148245 10.60426687037394 0 0 0
668 223 1 0.5897 1.4042490593317503 5.713221807458662 14.966620348009652 0 0 0
683 228 1 0.5897 4.306252098725757 2.62091309493983 14.476860756263267 0 0 0
350 117 1 0.5897 2.438443893120906 4.027193182363053 13.686872343296217 0 0 0
456 152 1 0.5897 2.2106274634448564 6.483034737059143 12.302960667989668 0 0 0
349 117 2 -1.1794 2.3294143234200755 4.973001635951219 13.58732111536308 0 0 0
757 253 2 -1.1794 2.3949883272873103 9.037658374522872 14.103927649841369 0 0 0
455 152 1 0.5897 2.826024764562349 7.5856199283742365 11.4677458631282 0 0 0
351 117 1 0.5897 3.17339692806786 5.340825292615253 13.849462386823403 0 0 0
334 112 2 -1.1794 0.8742482120023382 4.189490039341132 10.684571869349847 0 0 0
454 152 2 -1.1794 2.0726231246712095 7.388366055143298 12.024282101570915 0 0 0
759 253 1 0.5897 2.3697737049673337 8.489826854329314 13.319448228242825 0 0 0
336 112 1 0.5897 1.808164652468438 4.3100591487449895 10.856620658475917 0 0 0
340 114 2 -1.1794 3.5106578390475063 4.605420667210245 10.611286088128372 0 0 0
533 178 1 0.5897 0.3487753256628833 7.861842582498096 12.105041325918398 1 0 0
661 221 2 -1.1794 4.443815839074139 5.8572850001044365 15.25590148951345 0 0 0
758 253 1 0.5897 2.463806437978815 9.932112268649316 13.770031846530777 0 0 0
436 146 2 -1.1794 4.289968208679594 8.028003950913995 10.473956819429379 0 0 0
332 111 1 0.5897 4.861463837882187 4.497480534235447 11.85867305335726 0 0 0
658 220 2 -1.1794 1.2323537526900397 4.013714538731503 17.60374160046805 0 0 0
664 222 2 -1.1794 3.9641370964180105 4.128223055491098 17.24261945703232 0 0 0
671 224 1 0.5897 2.1495414592068136 1.5961502159023404 19.28308848370078 0 0 0
653 218 1 0.5897 3.481573867847121 1.2199765775079332 17.52816870545238 0 0 0
670 224 2 -1.1794 2.002089119965545 0.9055153114284505 18.63693639870161 0 0 0
652 218 2 -1.1794 4.390859656529597 1.3783796184865305 17.27435426084141 0 0 0
672 224 1 0.5897 1.063541750519259 0.7245678124676821 18.688960921861355 0 0 0
665 222 1 0.5897 3.023105749389281 4.091391866603596 17.414219642883097 0 0 0
666 222 1 0.5897 4.234049212477719 3.211469907423502 17.18720600348846 0 0 0
681 227 1 0.5897 0.7628194561330751 2.191742370953115 16.721066038576485 0 0 0
662 221 1 0.5897 4.398008111556955 5.136762266193752 15.884359144147405 0 0 0
659 220 1 0.5897 0.5777077030377157 4.183021938856748 18.28123341614959 0 0 0
654 218 1 0.5897 4.4652076217260195 0.9988845432289144 16.39881984622991 0 0 0
663 221 1 0.5897 4.403616517603197 6.648014864488519 15.793839068447475 0 0 0
660 220 1 0.5897 1.0060515735731415 4.616529925062403 16.895493450358103 0 0 0
779 260 1 0.5897 2.1216756430936194 8.536108862111773 18.931678982435898 0 0 0
858 286 1 0.5897 0.3037801581436463 7.478786889169644 18.66097350237962 1 0 0
761 254 1 0.5897 4.145381413386219 9.143349905972306 17.011540232427933 0 0 0
760 254 2 -1.1794 4.215999201484554 8.19068544041066 16.949930356062705 0 0 0
778 260 2 -1.1794 1.9656040712781124 7.81462220145769 18.322307821158624 0 0 0
762 254 1 0.5897 4.819282549648955 7.948765358119658 17.652591854814613 0 0 0
788 263 1 0.5897 0.6591025372698659 9.086605671005149 16.674950110433038 0 0 0
675 225 1 0.5897 2.5519776291891025 6.464608937916466 19.506509611193703 0 0 0
780 260 1 0.5897 2.7317430388759467 7.815278785261117 17.74846466881583 0 0 0
679 227 2 -1.1794 0.6416474744766482 1.6152047818490771 15.966665629792127 0 0 0
669 223 1 0.5897 0.7193438582909779 6.861919990696065 15.67615092659931 0 0 0
787 263 2 -1.1794 0.3776066245638527 8.61433264694388 15.891436565266211 0 0 0
2 1 1 0.5897 2.8935683083157384 3.5800416857726316 19.868930271910315 0 0 -1
1 1 2 -1.1794 2.964691843060568 2.7475635732824397 20.336081603311754 0 0 -1
109 37 2 -1.1794 2.790253046009885 9.491397937879112 20.49343689675498 0 0 -1
673 225 2 -1.1794 2.907341487075887 5.803249040894693 20.1002932423435 0 0 0
656 219 1 0.5897 5.022211877133464 4.588818881378758 18.51444142043947 0 0 0
667 223 2 -1.1794 0.7406892732576051 5.906062414734126 15.628991292990426 0 0 0
240 80 1 0.5897 3.0198231374149915 13.626929064736272 4.558199216537784 0 0 0
129 43 1 0.5897 0.8802636670034211 13.14181049593018 2.2874403635413496 0 0 0
120 40 1 0.5897 1.040587897238399 11.10154373944318 2.9892330197102304 0 0 0
230 77 1 0.5897 4.019715724329208 18.98128397458295 1.1222819430075042 0 0 0
233 78 1 0.5897 4.300311492668712 17.813948251867327 2.9488760273487404 0 0 0
118 40 2 -1.1794 1.2735057327814763 10.418831242084664 3.6184417453387083 0 0 0
123 41 1 0.5897 4.27213456802452 12.486682855532155 0.8240775316766311 0 0 0
122 41 1 0.5897 4.41198083698108 12.02961129055014 2.2604511116987487 0 0 0
222 74 1 0.5897 4.538247666203356 14.05118266129117 2.8221832021158177 0 0 0
247 83 2 -1.1794 0.9509532414849695 15.257062688899605 1.8200502273117616 0 0 0
127 43 2 -1.1794 0.6884988427992055 12.282426080103019 1.9119358584675819 0 0 0
221 74 1 0.5897 4.348983139516828 15.408391537672223 3.465834520201202 0 0 0
119 40 1 0.5897 2.1038428439008428 10.711785407072542 3.99397917609744 0 0 0
125 42 1 0.5897 4.564544144375559 11.16019848101663 4.477878673234555 0 0 0
248 83 1 0.5897 0.9529108260079342 15.883874735853777 2.543460001473511 0 0 0
220 74 2 -1.1794 4.408462578597454 14.475143901596494 3.6704598765104666 0 0 0
124 42 2 -1.1794 4.0156951844460185 10.998827822707876 3.710468170692536 0 0 0
235 79 2 -1.1794 0.8830691859156833 18.82284488264719 1.4512191676547264 0 0 0
232 78 2 -1.1794 4.126039293881699 17.167023756889662 3.6325041155234623 0 0 0
228 76 1 0.5897 0.6213333771319268 17.573710270699465 4.342815773415843 0 0 0
227 76 1 0.5897 1.093736673989575 17.967119187109574 2.959455748962854 0 0 0
783 261 1 0.5897 1.946583694202825 12.38038789281183 0.6026516648887158 0 0 1
234 78 1 0.5897 3.1855408562774787 17.238146445191042 3.7960729403757827 0 0 0
226 76 2 -1.1794 1.2654878623455061 17.35030922791404 3.670963604846005 0 0 0
121 41 2 -1.1794 4.882020564693022 12.484785108351472 1.5618064327730512 0 0 0
249 83 1 0.5897 1.6653844245477665 15.544586805928228 1.2515574194326564 0 0 0
890 297 1 0.5897 2.121701220206876 18.642555297917117 0.261187738593356 0 0 1
229 77 2 -1.1794 4.448952698302729 19.229317590436473 1.9410630296191462 0 0 0
238 80 2 -1.1794 2.1655011023697894 13.373716255480796 4.90793646549213 0 0 0
126 42 1 0.5897 4.166453839756743 10.077932223425007 3.4969704147439273 0 0 0
219 73 1 0.5897 4.039493721740252 15.780266787971788 0.41362489219103366 0 0 0
317 106 1 0.5897 0.377376858950902 13.61410794998815 4.927715962620334 1 0 0
236 79 1 0.5897 1.0505075506614707 19.74869407862234 1.6276584304427029 0 0 0
217 73 2 -1.1794 3.122382033727493 15.989784481005259 0.236581171705339 0 0 0
133 45 2 -1.1794 2.598810227032075 11.417221957723443 6.757250945921482 0 0 0
134 45 1 0.5897 1.8628728519202338 11.606967963409666 7.339187688495976 0 0 0
135 45 1 0.5897 3.3748164499156945 11.643897378097396 7.269736144661122 0 0 0
453 151 1 0.5897 1.0675304178194236 11.939298828067056 9.44817386687745 0 0 0
445 149 2 -1.1794 4.575659276367329 12.322222151859673 8.320718808113423 0 0 0
451 151 2 -1.1794 0.9381899524683345 12.547854943172483 8.720748581118015 0 0 0
571 191 2 -1.1794 1.010476909394224 15.266065241720971 8.749215760308264 0 0 0
543 181 1 0.5897 2.345726473595272 14.907628482079183 6.061185873542893 0 0 0
446 149 1 0.5897 4.253774717052488 13.155131396732607 8.665650594538189 0 0 0
573 191 1 0.5897 1.2780892503152699 14.372903496203358 8.966006486202675 0 0 0
542 181 1 0.5897 2.0867432063957225 15.606983224399084 7.378592535980164 0 0 0
572 191 1 0.5897 1.1753098482231288 15.766684130924768 9.54820920912988 0 0 0
551 184 1 0.5897 1.5799879953302252 18.109893367263066 9.935226917480783 0 0 0
553 185 2 -1.1794 4.456839617984559 19.135291865481793 8.536073205604483 0 0 0
576 192 1 0.5897 4.210431233515178 15.600922822673263 7.30124237985844 0 0 0
559 187 2 -1.1794 0.7833391569618814 19.001814359948213 8.40847605074371 0 0 0
450 150 1 0.5897 4.191105282770896 11.362535082707865 9.70189493990226 0 0 0
555 185 1 0.5897 3.9537733326411133 18.898152926183087 7.757067230435663 0 0 0
242 81 1 0.5897 2.7811211442641772 17.565827090818484 6.374228880740284 0 0 0
241 81 2 -1.1794 2.659482878270008 18.51022571431366 6.47260120307565 0 0 0
243 81 1 0.5897 1.8537425885895211 18.5966405331951 6.9821118719272155 0 0 0
541 181 2 -1.1794 2.660524349750773 15.623905132977107 6.612643114749975 0 0 0
239 80 1 0.5897 2.3489337620323347 12.61736479827778 5.46520737384126 0 0 0
544 182 2 -1.1794 4.078714819722124 14.438354795900343 10.23556689314991 0 0 0
558 186 1 0.5897 4.321747261864233 17.909607070635847 9.868002448985134 0 0 0
557 186 1 0.5897 4.246305054856723 16.42864651148941 10.173350104651991 0 0 0
448 150 2 -1.1794 3.8363421473055705 10.704831162539998 10.300077776730824 0 0 0
457 153 2 -1.1794 2.720385622622101 11.747630389428545 13.58460606070467 0 0 0
458 153 1 0.5897 2.102486121805702 12.060332667015423 14.245403156760327 0 0 0
459 153 1 0.5897 3.5811294009285013 11.986628111456179 13.928595919684357 0 0 0
562 188 2 -1.1794 2.105564694177453 13.913870416334193 11.740180703198261 0 0 0
563 188 1 0.5897 2.309699497929901 13.144085564827968 12.271257675074345 0 0 0
545 182 1 0.5897 3.36252390337893 14.189799693390354 10.819983350191315 0 0 0
442 148 2 -1.1794 1.2312835289950743 10.678939781468983 10.692072875875152 0 0 0
896 299 1 0.5897 0.1446035255752257 15.56581484695959 15.35471755118299 0 0 0
769 257 2 -1.1794 4.7981231009344825 12.618734398689673 15.425500968587814 0 0 0
642 214 1 0.5897 0.4047565214519197 14.13126385546104 11.719706194886095 1 0 0
552 184 1 0.5897 2.698844076186384 17.429292010939964 10.694838873106772 0 0 0
885 295 1 0.5897 1.6977770012209956 18.656997423188532 15.022556259344102 0 0 0
564 188 1 0.5897 2.276295644304147 14.656982790398304 12.318892661439532 0 0 0
866 289 1 0.5897 3.5069785641723166 15.78669481837427 13.980814947926673 0 0 0
565 189 2 -1.1794 2.901954044449469 18.56338534247935 13.502339479460469 0 0 0
865 289 2 -1.1794 2.6335647131898674 15.846710202004973 13.593703809900953 0 0 0
867 289 1 0.5897 2.036208398953976 15.79554823309263 14.339860087049075 0 0 0
566 189 1 0.5897 2.825880637022987 17.617663656855115 13.375098760260897 0 0 0
879 293 1 0.5897 4.32105830981207 18.868635253765774 14.647082090502119 0 0 0
775 259 2 -1.1794 0.8331949922875628 12.598149312901441 15.265871759312297 0 0 0
550 184 2 -1.1794 1.747008365336948 17.52971020702044 10.677990676727514 0 0 0
567 189 1 0.5897 2.6164429401929254 18.941232197100508 12.670549845259671 0 0 0
620 207 1 0.5897 0.35748448930318827 18.008408946672677 12.038828144265464 1 0 0
449 150 1 0.5897 4.375785330232818 10.780570871366967 11.08712152597231 0 0 0
444 148 1 0.5897 2.1729101357212373 10.62566641817541 10.855906375916424 0 0 0
546 182 1 0.5897 4.8673401810598085 14.34892031946147 10.770679783289529 0 0 0
877 293 2 -1.1794 4.869993248797572 19.12918482240124 15.386672706039871 0 0 0
777 259 1 0.5897 0.8537926475084159 13.545223735322844 15.403666788526436 0 0 0
556 186 2 -1.1794 4.454007913837142 17.27404711117306 10.57141894372968 0 0 0
888 296 1 0.5897 2.470672340703612 13.504973129052308 19.28799082219108 0 0 0
768 256 1 0.5897 1.0608313084001921 11.312032443559465 16.61290828636026 0 0 0
773 258 1 0.5897 3.109766278905544 10.87865125592028 17.467658985253184 0 0 0
766 256 2 -1.1794 1.2589897459567256 10.755196544736364 17.36578102931548 0 0 0
782 261 1 0.5897 2.7641621339173335 11.409214682197735 20.307599566681212 0 0 0
875 292 1 0.5897 0.6549502741327515 17.28153067927481 18.321402554245562 0 0 0
886 296 2 -1.1794 2.432832625144863 14.197971176585446 18.62878802562815 0 0 0
774 258 1 0.5897 4.250023751306076 11.653260441185408 16.84166814747203 0 0 0
965 322 1 0.5897 0.5636430119103555 14.059675600601404 18.42412427701719 1 0 0
772 258 2 -1.1794 4.062064081459987 10.973696997592912 17.489033188028497 0 0 0
869 290 1 0.5897 3.292227541237144 14.585849308950237 16.899085153744018 0 0 0
771 257 1 0.5897 4.666469977046584 13.47593905452626 15.830647915822311 0 0 0
887 296 1 0.5897 2.699056414657059 14.98939978389684 19.096839135448505 0 0 0
891 297 1 0.5897 2.7648506181552985 19.410729450833884 19.65601852415254 0 0 0
767 256 1 0.5897 0.7426057509929819 11.126379042920135 18.081177007985204 0 0 0
868 290 2 -1.1794 4.096304912231741 14.912846184955852 16.49559925826524 0 0 0
889 297 2 -1.1794 2.921138079062197 18.690351975331055 20.266668673807576 0 0 0
882 294 1 0.5897 4.156946674830257 16.63827547228034 16.860358978993446 0 0 0
880 294 2 -1.1794 4.044606304285708 17.472946862706763 17.315339417459292 0 0 0
876 292 1 0.5897 1.2399648733718265 17.751961633198903 17.006802815165265 0 0 0
897 299 1 0.5897 1.0796066676013454 15.878867294461914 16.503444057615418 0 0 0
881 294 1 0.5897 3.139018152382761 17.45738795262444 17.625173249570885 0 0 0
874 292 2 -1.1794 1.3560630900007165 17.098032437019416 17.696100167281084 0 0 0
218 73 1 0.5897 3.1317479089924465 16.912702698432117 20.512451491256613 0 0 -1
878 293 1 0.5897 4.65837941932786 18.499637492404815 16.075964005816587 0 0 0
895 299 2 -1.1794 0.942080855919024 15.259604888619604 15.786648380949297 0 0 0
884 295 1 0.5897 1.048339757304737 19.67367883905134 15.937207841666284 0 0 0
870 290 1 0.5897 4.760863541872564 14.82446452620968 17.178783117392122 0 0 0
883 295 2 -1.1794 1.0783493451532928 18.735769073429324 15.748033216939435 0 0 0
781 261 2 -1.1794 2.6537274667590065 12.342714996938767 20.488439566343352 0 0 0
711 237 1 0.5897 9.010794640219427 6.155035111155214 0.536750915554288 0 0 1
41 14 1 0.5897 9.805357518487666 1.2339366792702282 3.6265345854691287 0 0 0
47 16 1 0.5897 7.6379039913088445 3.2199637610878256 3.693247647137103 0 0 0
55 19 2 -1.1794 7.498539863861889 5.772035007162322 1.7255505569978469 0 0 0
68 23 1 0.5897 8.326635193395123 2.2118781980889937 1.850242289095129 0 0 0
155 52 1 0.5897 7.787778153249959 9.51982894726998 3.571174555364312 0 0 0
46 16 2 -1.1794 7.986160707273543 4.061188577879247 3.9888568627592096 0 0 0
48 16 1 0.5897 7.249637781132426 4.483940389791342 4.430548642142598 0 0 0
69 23 1 0.5897 6.828801689683919 2.421355035912554 1.9195459116144176 0 0 0
67 23 2 -1.1794 7.552624507036873 1.9789214916023412 2.362987652145229 0 0 0
142 48 2 -1.1794 5.489587204665632 9.175995871062671 0.2520487218820783 0 0 0
177 59 1 0.5897 7.9296710072193575 8.738896878641055 1.5910355672836374 0 0 0
176 59 1 0.5897 7.438424762058136 7.402821579664541 2.1065428962101853 0 0 0
57 19 1 0.5897 7.558951654304066 5.169248424313143 2.4666262127042273 0 0 0
53 18 1 0.5897 9.807400055558507 4.111737097071894 4.166411553454836 0 0 0
34 12 2 -1.1794 5.557275548951329 2.7937779733719466 0.7762704109216375 0 0 0
143 48 1 0.5897 5.820076473568325 8.694244887018948 1.0102623830810589 0 0 0
56 19 1 0.5897 6.595442295824024 5.686696012505445 1.4198234803061183 0 0 0
175 59 2 -1.1794 7.3704065219236545 8.345135249995293 2.2606503026607 0 0 0
37 13 2 -1.1794 9.33638198494114 2.9388019277126816 0.3212907475216502 0 0 0
145 49 2 -1.1794 9.274024757459921 9.378187131480157 0.39856868342842683 0 0 0
58 20 2 -1.1794 8.665038536813718 0.8305899665379617 4.879941152127171 0 0 0
166 56 2 -1.1794 8.833866170227655 7.427337023499203 5.137811405436288 0 0 0
29 10 1 0.5897 6.826037520551245 0.9699856059027533 4.9905040110334244 0 0 0
35 12 1 0.5897 5.733228063185943 1.9630397156100678 0.3344632991809888 0 0 0
36 12 1 0.5897 5.675431048662614 3.4570800912467936 0.09633884191552866 0 0 0
469 157 2 -1.1794 9.332295266047467 9.295537268321446 7.141613811271916 0 0 0
359 120 1 0.5897 5.9801434668323985 2.515338365365171 7.9943372338947425 0 0 0
338 113 1 0.5897 5.413304461037697 5.97757368490905 8.435614098799263 0 0 0
361 121 2 -1.1794 9.013592426562742 2.78773001701201 6.808430676651341 0 0 0
362 121 1 0.5897 8.925353745334158 3.727002629887274 6.646155556536053 0 0 0
360 120 1 0.5897 5.621735690035932 2.0311147718814913 6.60554198451849 0 0 0
391 131 2 -1.1794 7.55174582128769 2.100123422308398 9.134488025707048 0 0 0
393 131 1 0.5897 7.508477723239595 1.152704808199416 9.00453120711201 0 0 0
379 127 2 -1.1794 7.254415254169 5.722109156860577 8.884630771279546 0 0 0
8 3 1 0.5897 5.50915346841405 4.30717686274598 6.085241030603184 0 0 0
392 131 1 0.5897 8.16589090957662 2.4061504699188827 8.467101296848655 0 0 0
467 156 1 0.5897 5.664498318540959 8.652516966990309 7.004043317246301 0 0 0
62 21 1 0.5897 8.289653043538037 5.548175464715626 7.406517657294839 0 0 0
363 121 1 0.5897 9.905543203617272 2.6842386514197765 7.14015388241608 0 0 0
380 127 1 0.5897 7.288994924602915 6.5612869678137145 9.343864891608549 0 0 0
358 120 2 -1.1794 5.3792837929830855 2.678756357086216 7.267374117069319 0 0 0
61 21 2 -1.1794 9.078074426000239 5.422208289833398 6.878525010208214 0 0 0
381 127 1 0.5897 7.303046947259259 5.06582763485782 9.579725278233719 0 0 0
168 56 1 0.5897 9.061944584585898 8.038626127173272 5.8381807278430085 0 0 0
500 167 1 0.5897 7.674748995339553 9.174723144236474 9.943091869994435 0 0 0
501 167 1 0.5897 6.716198602120986 8.911814150740744 8.801250734269303 0 0 0
470 157 1 0.5897 8.914213125007436 9.043586739842025 7.964957627157019 0 0 0
499 167 2 -1.1794 7.472692608686862 8.540490419218928 9.255255828643756 0 0 0
59 20 1 0.5897 8.772923720043245 1.5848067076218348 5.459414127560313 0 0 0
466 156 2 -1.1794 5.30415647254206 9.204935789063267 7.697716599626181 0 0 0
138 46 1 0.5897 7.052833246733648 7.701420549242693 5.27481184606876 0 0 0
7 3 2 -1.1794 5.701067557962487 4.925519997894836 5.38022895724617 0 0 0
63 21 1 0.5897 9.80124654783153 5.553699835081696 7.49169720500853 0 0 0
28 10 2 -1.1794 5.934494706082501 0.8116004103374868 5.300982335044283 0 0 0
167 56 1 0.5897 8.788555378243117 6.574014617297438 5.569180100088651 0 0 0
136 46 2 -1.1794 6.097689856515325 7.721613495641539 5.33516936637001 0 0 0
137 46 1 0.5897 5.843480155591909 6.803201081380664 5.426083592002384 0 0 0
331 111 2 -1.1794 5.701296023334671 4.563185464124426 12.313278299969436 0 0 0
491 164 1 0.5897 9.549854084899067 7.452919015472538 11.167294286467007 0 0 0
462 154 1 0.5897 5.88740305983278 7.772275085516981 11.356264456318197 0 0 0
384 128 1 0.5897 8.847561247036182 1.0387732500027482 11.251259531528383 0 0 0
354 118 1 0.5897 5.487391486813617 1.4184094817451354 12.973223282814818 0 0 0
685 229 2 -1.1794 9.122945729779039 2.6356217852510966 14.012762151478391 0 0 0
684 228 1 0.5897 5.450767568801866 3.4651566437111563 13.957788098970973 0 0 0
372 124 1 0.5897 7.443926898110654 4.043185956119511 11.594624845366077 0 0 0
352 118 2 -1.1794 5.616866523270202 0.9719593705409795 12.136523110783648 0 0 0
686 229 1 0.5897 8.638949671967898 2.3818195209289508 14.798559812763008 0 0 0
353 118 1 0.5897 6.550072604259342 1.0764555388383648 11.950655848558194 0 0 0
383 128 1 0.5897 8.43093174250958 1.6841441985103487 12.55567640794372 0 0 0
382 128 2 -1.1794 8.240258396991608 0.9401119789584353 11.984509055615014 0 0 0
386 129 1 0.5897 8.927281543808109 4.494832577863061 13.718397045894587 0 0 0
385 129 2 -1.1794 8.749349792146598 5.395365876492889 13.989910153233092 0 0 0
492 164 1 0.5897 8.255873837006515 7.414849912877544 11.95228541223946 0 0 0
371 124 1 0.5897 7.8450558300540445 3.187178830946381 10.412176625209904 0 0 0
791 264 1 0.5897 5.678651826553434 9.002551233378494 14.964789225563164 0 0 0
490 164 2 -1.1794 9.150409552347348 7.074026841558202 11.95027258999146 0 0 0
333 111 1 0.5897 5.779067009949983 5.489701179805876 12.540994174856001 0 0 0
790 264 2 -1.1794 5.207408497145893 8.745238983648404 14.172388122471128 0 0 0
387 129 1 0.5897 8.808602099018758 5.905766736702966 13.18235246250634 0 0 0
370 124 2 -1.1794 8.11597599893903 3.9526505884403655 10.919067916527752 0 0 0
461 154 1 0.5897 6.109808202867667 7.700473510174981 12.85190559808695 0 0 0
794 265 1 0.5897 9.431709397327463 8.368540245061917 13.098281388200906 0 0 0
460 154 2 -1.1794 6.532426413464404 7.512275580779188 12.013976292048929 0 0 0
793 265 2 -1.1794 9.410483766812911 8.901335379123356 13.893169567340163 0 0 0
682 228 2 -1.1794 5.261437955394691 2.6487374807928274 14.420239761940506 0 0 0
377 126 1 0.5897 9.88251284014343 3.9817688076354205 10.611484177529132 0 0 0
705 235 1 0.5897 7.631650082502646 5.825307332099914 15.161262569191347 0 0 0
824 275 1 0.5897 8.056667921371146 8.97742944800154 15.34306724906751 0 0 0
795 265 1 0.5897 9.489962641121494 9.802541431261211 13.580354461957114 0 0 0
704 235 1 0.5897 6.204439494548112 5.936684278565157 15.653929377700106 0 0 0
823 275 2 -1.1794 7.358589484205841 8.946243184938558 15.997248406276336 0 0 0
702 234 1 0.5897 9.664143598782543 4.50847506357118 17.725653560880875 0 0 0
703 235 2 -1.1794 7.104170008130758 6.171813799405835 15.880899753591418 0 0 0
715 239 2 -1.1794 7.440219185730689 1.9696437366028618 16.05655100388219 0 0 0
815 272 1 0.5897 9.209516961616753 7.015597518825727 19.11301825096916 0 0 0
38 13 1 0.5897 9.143107989272115 2.4794308834916103 20.033892729551827 0 0 -1
657 219 1 0.5897 6.469270931643576 4.474708401568154 18.94467713154318 0 0 0
655 219 2 -1.1794 5.611438229595374 4.774549277361357 19.245542668558812 0 0 0
694 232 2 -1.1794 7.833888283204374 4.431501347874687 17.84761861393534 0 0 0
708 236 1 0.5897 7.741496035008811 1.139392156471124 18.79224044835131 0 0 0
689 230 1 0.5897 9.961902632254526 1.4803718063935456 17.405007231431213 0 0 0
706 236 2 -1.1794 8.695952894437177 1.135807277189469 18.719089839817574 0 0 0
695 232 1 0.5897 7.879432675748782 3.5570802250182774 17.460790171348194 0 0 0
814 272 2 -1.1794 8.877464747214653 7.840372398546351 18.758325260145295 0 0 0
707 236 1 0.5897 8.966827025406342 0.3262512007913335 19.152173509390547 0 0 0
816 272 1 0.5897 9.084909468844225 8.490984919231497 19.4290766895281 0 0 0
676 226 2 -1.1794 6.044373435315269 0.7831609925577163 19.377678735350226 0 0 0
785 262 1 0.5897 6.006318710183199 6.499132300408197 19.024061847105635 0 0 0
786 262 1 0.5897 7.086371317083152 7.52224000514151 18.743101758551692 0 0 0
696 232 1 0.5897 7.755275188259925 5.021753995878226 17.09822037525707 0 0 0
784 262 2 -1.1794 6.136671369224083 7.42325868031595 18.811100682283133 0 0 0
825 275 1 0.5897 7.240172783641541 8.013601292674004 16.17757796274187 0 0 0
677 226 1 0.5897 5.344353780858731 0.9596458963639602 18.74916046837532 0 0 0
144 48 1 0.5897 5.76039218597099 8.651949421386774 20.028022713362336 0 0 -1
716 239 1 0.5897 7.4161997630021 1.0200080144477603 16.17478035240886 0 0 0
709 237 2 -1.1794 9.688264499756771 5.777228047497168 20.50567322030659 0 0 0
717 239 1 0.5897 6.593920827366508 2.184095006521047 15.663989726186946 0 0 0
710 237 1 0.5897 9.472642842309957 4.845527789306526 20.463215996117274 0 0 0
246 82 1 0.5897 5.691025152064575 14.127357347297927 4.970185973116169 0 0 0
254 85 1 0.5897 9.27109424126884 15.781567164045814 0.666309871163609 0 0 0
276 92 1 0.5897 9.413614066196759 13.7199826524205 4.457057113874329 0 0 0
285 95 1 0.5897 8.02725107981156 14.389058775725395 2.2859097089921168 0 0 0
156 52 1 0.5897 8.82895383326015 10.452700419539548 4.152407492315707 0 0 0
154 52 2 -1.1794 7.8830580570857975 10.333809440431587 4.065777892181683 0 0 0
165 55 1 0.5897 7.721583833419588 11.889996242520839 2.79909520201086 0 0 0
163 55 2 -1.1794 7.530783136940015 12.542269487942429 2.1250350247618877 0 0 0
164 55 1 0.5897 6.597779607835279 12.431912420658977 1.941561555341869 0 0 0
250 84 2 -1.1794 5.7441771824852585 15.413184502216687 0.2230981965387354 0 0 0
284 95 1 0.5897 8.012724581024942 15.846987924446896 2.6938672680103566 0 0 0
263 88 1 0.5897 7.351311218047928 17.404595283794396 4.581005144033275 0 0 0
262 88 2 -1.1794 7.862443860998944 17.262141143798136 3.784371255285295 0 0 0