LAMMPS data file via write_data, version 30 Jul 2021, timestep = 41250000

972 atoms
2 atom types
648 bonds
1 bond types
324 angles
1 angle types

0.02726741516225495 19.972733584800118 xlo xhi
0.08077812741031387 19.919222872571908 ylo yhi
0.017737642127944042 20.682260357857206 zlo zhi

Masses

1 1.008
2 15.999

Pair Coeffs # lj/cut/tip4p/long/omp

1 0 0
2 0.21084 3.1668

Bond Coeffs # harmonic/omp

1 450 0.9572

Angle Coeffs # harmonic/omp

1 55 104.52

Atoms # full

10 4 2 -1.1794 1.3618562348971668 4.091948212220839 3.96987373720061 0 0 0
11 4 1 0.5897 1.2218689653061283 3.3373138345845423 3.397902721502375 0 0 0
12 4 1 0.5897 2.3107510210860203 4.218311201895781 3.9725843008355874 0 0 0
33 11 1 0.5897 1.7085150184123914 2.2020511454646914 1.4782436493449278 0 0 0
31 11 2 -1.1794 1.0109676709375388 2.0986505154347666 2.1255400156423288 0 0 0
18 6 1 0.5897 4.095774848378062 3.1429168681912363 3.4970681818726055 0 0 0
4 2 2 -1.1794 4.155000905075929 1.3436434414030407 3.3665988428454034 0 0 0
16 6 2 -1.1794 4.045583395635995 4.066910136662472 3.741979033889084 0 0 0
23 8 1 0.5897 2.7896610082952695 0.9686501691598487 4.438449642594254 0 0 0
5 2 1 0.5897 4.199715823945929 0.6956519346955422 2.66353839346575 0 0 0
17 6 1 0.5897 4.338134349534266 4.538208584407021 2.9619445578886463 0 0 0
22 8 2 -1.1794 2.101897243121486 0.8949655984353633 5.100114882992447 0 0 0
3 1 1 0.5897 3.622317136049893 2.43819842335339 0.2225474688570206 0 0 0
126 42 1 0.5897 4.168044907486109 9.706811997584188 3.5137845677375017 0 0 0
130 44 2 -1.1794 2.032833201582678 7.508981820583678 4.89617371811351 0 0 0
13 5 2 -1.1794 4.821627945088794 5.785569910824667 1.658347037493911 0 0 0
140 47 1 0.5897 0.9716940230460112 9.22195024020077 2.7909332255670547 0 0 0
111 37 1 0.5897 3.5834153037434002 9.18772202307382 0.260769886025661 0 0 0
236 79 1 0.5897 0.8303248861284809 0.32992174316177125 2.0006206528605874 0 1 0
15 5 1 0.5897 4.63070414689292 6.56749324450248 2.176372683076087 0 0 0
19 7 2 -1.1794 0.8271108099274526 5.91135985821334 1.9442128273073809 0 0 0
20 7 1 0.5897 0.9158813555031399 5.274931673948026 2.6536250662619048 0 0 0
110 37 1 0.5897 2.1449383727888787 9.142618708540432 0.7308174092337173 0 0 0
674 225 1 0.5897 1.9464383357033852 5.548006159250624 0.624292573691025 0 0 1
114 38 1 0.5897 3.4972621980500778 7.686295785445935 3.9326907167321865 0 0 0
14 5 1 0.5897 4.100236742429507 5.730989863378269 1.0315492474931298 0 0 0
139 47 2 -1.1794 0.774230107044696 8.695493398847857 2.01632142291405 0 0 0
141 47 1 0.5897 0.9348044623996812 7.793042492453896 2.292116434258871 0 0 0
112 38 2 -1.1794 4.32376363890437 7.769909928753813 3.457071565739317 0 0 0
6 2 1 0.5897 4.795549243886896 1.0428797397296896 4.011181833372547 0 0 0
32 11 1 0.5897 0.20376780642722597 2.2573893104673854 1.6361169840029037 0 0 0
132 44 1 0.5897 1.0760125454007303 7.503008971600456 4.867306353875141 0 0 0
113 38 1 0.5897 4.992098389631222 7.50336782693977 4.0883666942419925 0 0 0
102 34 1 0.5897 0.3165016532848256 0.9160754570483449 5.160188460630248 1 0 0
325 109 2 -1.1794 2.7104076847358267 2.6872041225253933 7.205495828738541 0 0 0
326 109 1 0.5897 2.523517325748421 2.1529246081560736 6.433619551943014 0 0 0
327 109 1 0.5897 3.619476349369182 2.4824971486173686 7.424689633047547 0 0 0
355 119 2 -1.1794 0.8804643033461823 2.1173288972957156 9.127482951845163 0 0 0
356 119 1 0.5897 1.5960498352292347 2.2978949058705265 8.517891759636797 0 0 0
27 9 1 0.5897 2.6643466114235053 4.523816123040347 6.604913758672832 0 0 0
329 110 1 0.5897 4.214842540969081 0.7411194630603926 9.439145206604058 0 0 0
342 114 1 0.5897 4.205113054407535 4.666392251332839 9.785252817564345 0 0 0
437 146 1 0.5897 4.344894651279644 7.515376632863598 9.54336578721604 0 0 0
339 113 1 0.5897 4.009646373494045 5.829241165465116 7.823790137924421 0 0 0
561 187 1 0.5897 0.8922569209473212 0.3685661782408798 8.888026669410209 0 1 0
335 112 1 0.5897 1.0117885806436386 3.6705381019585137 10.145920521564328 0 0 0
463 155 2 -1.1794 0.7710385005708333 8.670999949507868 9.001644538555745 0 0 0
468 156 1 0.5897 4.3373907089151045 9.067346212252149 7.377746694976992 0 0 0
438 146 1 0.5897 4.16783047813213 8.909300571547817 10.106904835077623 0 0 0
26 9 1 0.5897 1.9213017475627303 5.672155975268544 7.25390671981209 0 0 0
131 44 1 0.5897 2.262361656123179 6.733158562673611 5.407683420707821 0 0 0
343 115 2 -1.1794 0.764122230016908 5.968195370819141 8.464126730000714 0 0 0
25 9 2 -1.1794 2.620051676442379 5.479719314031013 6.6286244230161735 0 0 0
464 155 1 0.5897 1.4565445869956868 8.801564869927667 8.346443871571426 0 0 0
337 113 2 -1.1794 4.559149315469902 5.96163461739954 8.596265731665833 0 0 0
344 115 1 0.5897 1.0311889847054163 5.4170593426646345 9.199714961271976 0 0 0
433 145 2 -1.1794 2.568372701931165 9.144192682045768 7.057412672877122 0 0 0
345 115 1 0.5897 0.7633000496376581 6.857445791007075 8.818348083993635 0 0 0
435 145 1 0.5897 2.399934563368262 8.672432105762347 6.241794514066178 0 0 0
328 110 2 -1.1794 3.9914850753605053 1.3887839798503963 10.107602750043338 0 0 0
357 119 1 0.5897 0.08732689795368319 2.336492953851674 8.638398031733946 0 0 0
341 114 1 0.5897 3.9999688774664897 3.211820109527155 10.151450618416543 0 0 0
649 217 2 -1.1794 2.586302148503586 2.5425135225358404 14.089241632098844 0 0 0
650 217 1 0.5897 2.364275343016889 1.9479048273063366 13.372767068019243 0 0 0
651 217 1 0.5897 1.9839603301550282 2.304385268717358 14.7940156676198 0 0 0
348 116 1 0.5897 2.4845635509310364 1.065660829718659 11.144576542306794 0 0 0
346 116 2 -1.1794 1.967058643106224 0.9406394495476121 11.940031292425633 0 0 0
350 117 1 0.5897 2.5168064007515176 4.32214750321888 13.74050585976611 0 0 0
347 116 1 0.5897 1.0832815055679201 1.2170778356350158 11.697411474705694 0 0 0
683 228 1 0.5897 4.402484605946262 2.6874046098453257 14.443859608269193 0 0 0
336 112 1 0.5897 2.2239003392523817 4.352289757893786 10.744333004094793 0 0 0
330 110 1 0.5897 4.600466830902086 1.2130454973595053 10.82487883183631 0 0 0
340 114 2 -1.1794 3.9612780698484045 4.09658898981246 10.514670499905854 0 0 0
789 263 1 0.5897 1.5730015356678295 8.740188700394663 15.380802702306664 0 0 0
533 178 1 0.5897 0.3686686201563711 7.55053049462067 12.103241635295038 1 0 0
351 117 1 0.5897 3.323670583992448 5.507064321312424 14.227300242255225 0 0 0
759 253 1 0.5897 2.4891023325590096 8.757116853794399 13.451757462759508 0 0 0
668 223 1 0.5897 1.3148306298205634 5.668933642669009 14.998418761287718 0 0 0
455 152 1 0.5897 2.778583151113094 7.6416437668677375 11.44351460070281 0 0 0
456 152 1 0.5897 2.3862395703706607 6.654807865072139 12.522418768977234 0 0 0
454 152 2 -1.1794 2.1472010281147367 7.503374576070406 12.149526371490378 0 0 0
792 264 1 0.5897 4.593533066979686 9.066012058368074 14.179482087502118 0 0 0
349 117 2 -1.1794 2.5087281169365805 5.278514604786882 13.780150066669643 0 0 0
757 253 2 -1.1794 2.8044092083343988 9.314658103222994 14.163042464482993 0 0 0
334 112 2 -1.1794 1.2726922526675208 4.428766204361852 10.668657602515875 0 0 0
661 221 2 -1.1794 4.6973210691394645 5.915583789684894 15.465840011930965 0 0 0
405 135 1 0.5897 0.04363624105086217 4.5946797116970135 12.054901495211686 1 0 0
436 146 2 -1.1794 4.153865534716098 7.984965836582461 10.355249197860104 0 0 0
653 218 1 0.5897 3.3009310853582785 1.0913025794466042 17.38578773714348 0 0 0
652 218 2 -1.1794 4.1399139908594575 1.2865555886739541 16.968286487469253 0 0 0
664 222 2 -1.1794 4.11374067203264 4.024194045599372 17.463672183315236 0 0 0
671 224 1 0.5897 2.2753316588100243 1.4532789525939096 19.312706680250972 0 0 0
666 222 1 0.5897 4.164236970067592 3.094346745527307 17.242084222744733 0 0 0
670 224 2 -1.1794 1.9666292984006353 0.8147569635169496 18.66989558914006 0 0 0
665 222 1 0.5897 3.190821806084807 4.171837119196462 17.67051861370084 0 0 0
681 227 1 0.5897 0.7625079845780888 2.5822725327204386 16.564724993743127 0 0 0
672 224 1 0.5897 1.0124907373249608 0.8861158509392715 18.699792400705377 0 0 0
658 220 2 -1.1794 1.3425709324885524 3.9992253079209665 17.608052939298126 0 0 0
659 220 1 0.5897 0.7428542884645885 4.143577790104589 18.339984937177817 0 0 0
654 218 1 0.5897 4.27285666655742 0.5685126304256602 16.349460820125348 0 0 0
660 220 1 0.5897 1.0906150980473448 4.655525473760956 16.958446691559605 0 0 0
662 221 1 0.5897 4.4508322334197 5.227636420071685 16.08404883899812 0 0 0
679 227 2 -1.1794 0.6167928672754022 1.9342112595794387 15.875542044049773 0 0 0
109 37 2 -1.1794 2.6853504137248234 9.337677237669453 20.629761404967407 0 0 -1
762 254 1 0.5897 4.958095100474365 7.860801148027964 17.723941220407177 0 0 0
779 260 1 0.5897 2.3999181478241725 8.042416636685054 19.42549047206386 0 0 0
675 225 1 0.5897 2.5321775201685255 5.953202693644182 19.952979757461705 0 0 0
663 221 1 0.5897 4.51814884331396 6.732374301877148 15.931656678468709 0 0 0
787 263 2 -1.1794 0.8723504006211309 8.580216943763567 16.013065535034197 0 0 0
858 286 1 0.5897 0.457904175255995 7.26077413725642 18.780880135669815 1 0 0
780 260 1 0.5897 2.849326220190951 7.53068552674001 18.07350408469474 0 0 0
761 254 1 0.5897 4.206001807165548 9.001103211107102 17.071216832122776 0 0 0
778 260 2 -1.1794 2.2424759565648054 7.3442631389531225 18.789881460960228 0 0 0
760 254 2 -1.1794 4.278950925059422 8.046674583353532 17.075512020990406 0 0 0
788 263 1 0.5897 0.9511595368050669 9.295234209747306 16.644528742030094 0 0 0
884 295 1 0.5897 0.639800228937426 0.13317361398368907 15.739821739253347 0 1 0
2 1 1 0.5897 2.5513361497995506 3.4711717312425563 20.607646509495442 0 0 -1
1 1 2 -1.1794 2.6946359609578705 2.526669618465527 20.668115664080425 0 0 -1
673 225 2 -1.1794 2.637815498701691 5.323470009724141 20.666046823142096 0 0 0
667 223 2 -1.1794 0.6953491627978015 5.798597549789114 15.716509059026546 0 0 0
669 223 1 0.5897 0.785663062132858 6.723167143776788 15.94733672028654 0 0 0
120 40 1 0.5897 1.1158409405991432 11.395061025059112 3.288093696724582 0 0 0
129 43 1 0.5897 0.8657834660414324 13.447985118143803 2.05007342362319 0 0 0
118 40 2 -1.1794 1.3129099364746646 10.685032927542998 3.899025736212317 0 0 0
119 40 1 0.5897 2.2677432468235574 10.685275701400275 3.9673534324149364 0 0 0
240 80 1 0.5897 2.507831304179423 14.100320880199805 4.534946836501451 0 0 0
127 43 2 -1.1794 0.7825603028559436 12.509719108783619 1.8797774814887567 0 0 0
123 41 1 0.5897 3.9345757872797886 12.248004267169549 0.7809274303746323 0 0 0
222 74 1 0.5897 3.9913330425593996 13.861298178750372 2.6327892270035895 0 0 0
124 42 2 -1.1794 4.01039932961314 10.647167484182877 3.598378196130443 0 0 0
783 261 1 0.5897 1.790362860965754 12.263189672092324 0.418468653906753 0 0 1
220 74 2 -1.1794 3.9001383078161687 14.278941004339165 3.4891789192258225 0 0 0
122 41 1 0.5897 4.327284108979594 11.749025693734048 2.1551514288055293 0 0 0
219 73 1 0.5897 3.4215593958010246 15.6704335537958 0.13276680519169015 0 0 0
121 41 2 -1.1794 4.5535346743254825 12.40349369441874 1.4943283736763429 0 0 0
230 77 1 0.5897 3.950882887026917 18.83652988060217 0.7647362307141149 0 0 0
229 77 2 -1.1794 4.388930488982233 18.993222397845074 1.601238619562617 0 0 0
247 83 2 -1.1794 0.8669819029400669 15.25212030275808 2.1565023302311594 0 0 0
248 83 1 0.5897 1.0413230776499411 15.967291780843885 2.7683378647637786 0 0 0
890 297 1 0.5897 1.77963113433476 18.81888182963914 0.3854640833541168 0 0 1
226 76 2 -1.1794 1.3617012508649404 17.348814733850503 3.8050241489109253 0 0 0
228 76 1 0.5897 0.7002911178158256 17.496021173182385 4.481120175713028 0 0 0
221 74 1 0.5897 4.00173766903942 15.214153583390683 3.3121928582475846 0 0 0
232 78 2 -1.1794 4.069852787340553 17.075853175804347 3.5778744149937016 0 0 0
233 78 1 0.5897 4.217761324058773 17.63520651033749 2.8153643862068263 0 0 0
227 76 1 0.5897 1.1974379152934957 18.032699219244833 3.155776251287076 0 0 0
235 79 2 -1.1794 0.7260714006940876 19.232348494453397 1.8295318943063934 0 0 0
234 78 1 0.5897 3.1428591549694436 17.193581660190084 3.7856797458280105 0 0 0
249 83 1 0.5897 1.4233156687065152 15.441734058359874 1.4010291546878568 0 0 0
125 42 1 0.5897 4.520624079244166 10.908007909054549 4.36507662791824 0 0 0
133 45 2 -1.1794 2.576616146707888 11.864444506517847 6.698928535439829 0 0 0
134 45 1 0.5897 1.924093160649709 12.068868682267823 7.368751652503734 0 0 0
135 45 1 0.5897 3.4079850494636714 12.148501861049859 7.079008433173964 0 0 0
453 151 1 0.5897 0.9698373244044612 11.9582131816188 9.431040397244406 0 0 0
451 151 2 -1.1794 0.8632918532788556 12.588035510855242 8.718187048275585 0 0 0
450 150 1 0.5897 4.199466664871693 11.316122890184058 9.58682228353744 0 0 0
446 149 1 0.5897 4.491963509376576 13.355413320397092 8.858309012738006 0 0 0
573 191 1 0.5897 1.0161215897174851 14.665031217593674 9.544811758400744 0 0 0
445 149 2 -1.1794 4.735075158402527 12.596413142329503 8.328169042741116 0 0 0
239 80 1 0.5897 2.1554338905562185 13.194625180000232 5.695684836908958 0 0 0
551 184 1 0.5897 1.2622126058846261 18.292266831923634 10.261826620423133 0 0 0
543 181 1 0.5897 2.158525837751789 15.209370893488293 6.338806709883218 0 0 0
541 181 2 -1.1794 2.508383513126367 15.784994466417997 7.018854754448095 0 0 0
576 192 1 0.5897 4.284590160164441 15.752944670081815 7.379192989255363 0 0 0
542 181 1 0.5897 1.9142140355914041 15.669069521880045 7.7603014847379255 0 0 0
242 81 1 0.5897 2.5389841558725528 17.565839233274154 6.800697861147053 0 0 0
559 187 2 -1.1794 0.8146331930297116 19.25796842295813 8.790218754459408 0 0 0
571 191 2 -1.1794 0.7700491008859223 15.523788039131166 9.200958562612746 0 0 0
572 191 1 0.5897 0.979090428713707 16.1343085138097 9.907894571931596 0 0 0
553 185 2 -1.1794 4.545437143170211 18.969236674257765 8.590272674229517 0 0 0
555 185 1 0.5897 4.001686518084228 18.858158947386073 7.810407039099501 0 0 0
243 81 1 0.5897 1.9629447435857375 18.806149222108942 7.450134942133608 0 0 0
241 81 2 -1.1794 2.564181957915202 18.521934269353217 6.7616841876872495 0 0 0
558 186 1 0.5897 4.287189120025282 17.729340406123143 9.79842192593857 0 0 0
544 182 2 -1.1794 4.177920934833095 14.465556827461267 10.236058073261473 0 0 0
24 8 1 0.5897 2.2211566609581084 19.86033200954764 5.473964487315678 0 -1 0
434 145 1 0.5897 2.537619250894679 10.068581715179462 6.810790632248389 0 0 0
443 148 1 0.5897 1.073668516354436 10.011506730659773 10.192356769863304 0 0 0
448 150 2 -1.1794 4.051438459344327 10.68357807687933 10.289791862270384 0 0 0
557 186 1 0.5897 4.10219823633359 16.312410456297442 10.298475548603225 0 0 0
238 80 2 -1.1794 1.8300767083115785 13.94055709422113 5.191731602238985 0 0 0
457 153 2 -1.1794 2.5338718918838192 11.95982478782818 13.471064691855513 0 0 0
458 153 1 0.5897 1.8826673956002498 12.155531847900336 14.144765851638299 0 0 0
459 153 1 0.5897 3.3740459926299584 12.159623371202121 13.883991570169645 0 0 0
562 188 2 -1.1794 1.9481699942266482 14.127640240709814 11.764174780990677 0 0 0
563 188 1 0.5897 2.1634147796971193 13.298366215222416 12.191050072088489 0 0 0
449 150 1 0.5897 4.607705460572226 10.987471531344308 11.007032207954566 0 0 0
442 148 2 -1.1794 1.2941295971553644 10.736236839929195 10.777485932510803 0 0 0
444 148 1 0.5897 2.2492775905579623 10.714323318377 10.837387401510188 0 0 0
769 257 2 -1.1794 4.664082031214767 12.415895366016263 15.074682662544241 0 0 0
545 182 1 0.5897 3.3808623664944344 14.393835502169281 10.761267316852233 0 0 0
883 295 2 -1.1794 0.6355435551335634 19.071729244724573 15.413572906212137 0 0 0
758 253 1 0.5897 2.679333971719575 10.207570269216898 13.841603073729813 0 0 0
567 189 1 0.5897 2.532139371156993 19.22583205045475 12.839939121513837 0 0 0
550 184 2 -1.1794 1.388150848678349 17.624947687916823 10.93638020749986 0 0 0
556 186 2 -1.1794 4.062926523593682 17.226099053934334 10.58112711908366 0 0 0
564 188 1 0.5897 2.106350121856053 14.791340076296853 12.435498031588073 0 0 0
866 289 1 0.5897 3.5704903817309117 15.904676893751317 13.918561523014143 0 0 0
867 289 1 0.5897 2.1464088733510303 15.786031253351512 14.418659838693506 0 0 0
566 189 1 0.5897 2.659485983688359 17.850569385029807 13.45991940949358 0 0 0
885 295 1 0.5897 1.3941373896958194 19.023831665548997 14.831746023318335 0 0 0
565 189 2 -1.1794 2.806117924164163 18.779026171111916 13.640858485465666 0 0 0
879 293 1 0.5897 4.217183728955898 18.925132420058503 14.694218516590217 0 0 0
865 289 2 -1.1794 2.659829792153493 16.00458634470513 13.640950802618747 0 0 0
552 184 1 0.5897 2.335591029462777 17.49188811769762 10.96843569867679 0 0 0
642 214 1 0.5897 0.1271558534618035 14.276664336703082 11.742312677025357 1 0 0
877 293 2 -1.1794 4.8138690552845596 18.9894805238335 15.439902249200918 0 0 0
896 299 1 0.5897 0.12419016578870644 15.597322918824537 15.256547476666483 0 0 0
546 182 1 0.5897 4.886412955979277 14.257767757273102 10.84526261629234 0 0 0
768 256 1 0.5897 1.1657289855223236 11.484589554544874 16.888686307654226 0 0 0
888 296 1 0.5897 2.2583530423567457 13.337529263695165 18.909262469977946 0 0 0
766 256 2 -1.1794 1.343066896688662 10.829615798233647 17.56378655907369 0 0 0
773 258 1 0.5897 3.1405528917463585 10.873115966619268 17.474685064896477 0 0 0
886 296 2 -1.1794 2.108124162684833 14.139557270816676 18.408851309258903 0 0 0
774 258 1 0.5897 4.245517350749071 11.335464509942911 16.5487966793796 0 0 0
772 258 2 -1.1794 4.08823098481238 10.830314454278133 17.346449691762878 0 0 0
869 290 1 0.5897 3.446632559758473 14.283994667099352 17.290418412082033 0 0 0
767 256 1 0.5897 0.6511532795490753 10.960055682810221 18.212243388087987 0 0 0
868 290 2 -1.1794 4.237090009355254 14.503482345214925 16.797158584079103 0 0 0
895 299 2 -1.1794 0.9362823738509601 15.348970746060239 15.698297304991831 0 0 0
887 296 1 0.5897 2.271093977104717 14.84630707446082 19.03347517222676 0 0 0
781 261 2 -1.1794 2.4201093236063422 12.138610510077003 20.3729727698685 0 0 0
965 322 1 0.5897 0.3447010622571413 14.196478332628246 18.733762167453502 1 0 0
870 290 1 0.5897 4.9537529820350565 14.357469750143425 17.414685152638917 0 0 0
218 73 1 0.5897 2.4023221768006486 16.733922073114364 20.447653615008413 0 0 -1
882 294 1 0.5897 4.056434412120177 16.22523475491606 17.09514188104498 0 0 0
897 299 1 0.5897 1.013597124135587 15.968097917550768 16.42416779738992 0 0 0
874 292 2 -1.1794 1.2192358416992823 17.31246543615815 17.51672642261075 0 0 0
889 297 2 -1.1794 2.3895585877335925 18.531469479876364 20.370562760596457 0 0 0
891 297 1 0.5897 2.28469531531379 19.17231470342344 19.66735035581201 0 0 0
880 294 2 -1.1794 3.9782483108893913 17.149426977070775 17.331813776028575 0 0 0
875 292 1 0.5897 0.522970483712395 17.42906075037186 18.16315074267415 0 0 0
878 293 1 0.5897 4.5732725089065855 18.25439893394696 16.00381275377397 0 0 0
876 292 1 0.5897 0.9671886464193143 17.879303770256897 16.787787318541618 0 0 0
881 294 1 0.5897 3.037523190145141 17.29121008127123 17.438076765360552 0 0 0
771 257 1 0.5897 4.4427458255819525 13.218673673911498 15.546692364700586 0 0 0
782 261 1 0.5897 2.534107543144643 11.189850596429002 20.317001323735436 0 0 0
777 259 1 0.5897 0.9025365684140316 13.503566891360634 15.66239694439774 0 0 0
873 291 1 0.5897 4.980081374044123 17.551753283219213 18.629862559470617 0 0 0
217 73 2 -1.1794 2.492970499287038 15.793224807389544 20.59978124558721 0 0 -1
775 259 2 -1.1794 0.8086117143787005 12.56156540119024 15.520695982254384 0 0 0
142 48 2 -1.1794 5.358376401476827 9.087125505133603 0.37636180056137297 0 0 0
47 16 1 0.5897 7.8759558111221315 3.4135251402244693 3.356567895365955 0 0 0
57 19 1 0.5897 7.767087437534076 5.445863595881164 2.7141395567070985 0 0 0
53 18 1 0.5897 9.940794706861073 4.069536063141263 3.775563994312858 0 0 0
34 12 2 -1.1794 5.384199099193064 2.375130626762382 0.4418221870561564 0 0 0
69 23 1 0.5897 6.751062842186885 2.231348420345233 1.6113679588965133 0 0 0
48 16 1 0.5897 7.527472235383881 4.130869405353308 4.643307087951258 0 0 0
67 23 2 -1.1794 7.586132826389538 2.1045336098974126 2.0617992318796006 0 0 0
46 16 2 -1.1794 8.19792633983822 4.081436025088727 3.9619220262959356 0 0 0
68 23 1 0.5897 8.246630299607173 2.3731176806816485 1.4231612124917745 0 0 0
58 20 2 -1.1794 8.613677527930772 0.7581544889752566 5.083995311632737 0 0 0
273 91 1 0.5897 7.429605837430299 0.24506614999305448 1.8541773661236909 0 1 0
711 237 1 0.5897 8.575872898510028 5.762256773488309 0.5751019235444332 0 0 1
175 59 2 -1.1794 7.718710568930854 8.801253735133331 2.017689891400387 0 0 0
56 19 1 0.5897 6.591201059949903 5.837074486799763 1.844500056105718 0 0 0
36 12 1 0.5897 5.601450306995438 3.2123473363462067 0.03180167975139233 0 0 0
176 59 1 0.5897 7.716704756723496 7.847501198303938 2.0990796684776787 0 0 0
177 59 1 0.5897 8.323828316399716 8.97939839383992 1.297748943927539 0 0 0
55 19 2 -1.1794 7.521500909320077 6.01425757827653 1.9842050358330798 0 0 0
143 48 1 0.5897 6.066946493106217 8.99331049103316 1.0130548340147087 0 0 0
166 56 2 -1.1794 8.599963334511088 7.4377090871072395 5.0676217892286335 0 0 0
9 3 1 0.5897 5.257576939134451 4.224054870944129 5.013151988546105 0 0 0
37 13 2 -1.1794 9.421941481400093 2.791192906309681 0.1118852137136521 0 0 0
149 50 1 0.5897 9.892018898108361 7.951991462447849 3.9776015653003185 0 0 0
28 10 2 -1.1794 5.892936545628193 0.6695360886743809 5.400490955600791 0 0 0
361 121 2 -1.1794 9.282182140500808 2.689788477583362 6.965448305761193 0 0 0
391 131 2 -1.1794 7.685409611431001 2.1239251478108883 9.042098599366765 0 0 0
59 20 1 0.5897 8.822902899650414 1.4588737027657424 5.701595924431553 0 0 0
359 120 1 0.5897 6.198440964281546 2.3059096771081573 8.117796864623527 0 0 0
360 120 1 0.5897 5.6497951428134705 1.693223520437797 6.846830274909389 0 0 0
8 3 1 0.5897 5.819051498028596 3.765201184032836 6.3420328414006875 0 0 0
358 120 2 -1.1794 5.47956634128861 2.3811502337894743 7.4902432985627465 0 0 0
393 131 1 0.5897 7.605921083445361 1.1719776679779141 8.980836347584656 0 0 0
392 131 1 0.5897 8.33890310447068 2.353218833661216 8.381328302950235 0 0 0
7 3 2 -1.1794 5.982948809964459 4.371827160838227 5.6200016599497165 0 0 0
362 121 1 0.5897 9.215087176024497 3.6066722457461715 6.698828040325304 0 0 0
501 167 1 0.5897 6.614899471083034 8.696666800409028 8.670866178255801 0 0 0
381 127 1 0.5897 7.5525063649458515 5.254748582440192 9.278568798446651 0 0 0
379 127 2 -1.1794 7.3388252116291826 5.727081607558736 8.473953392602347 0 0 0
137 46 1 0.5897 5.894398556111108 6.175094889565761 5.618253324081515 0 0 0
338 113 1 0.5897 5.451348014260247 5.807459448582008 8.285533211055293 0 0 0
380 127 1 0.5897 7.409438534797809 6.651458327071078 8.712286865016479 0 0 0
467 156 1 0.5897 5.541754678646304 8.335346505509634 6.824765601209526 0 0 0
500 167 1 0.5897 7.6525032578546925 9.163381956232355 9.669615948137057 0 0 0
466 156 2 -1.1794 5.29450028048934 9.063267154079174 7.395046947707059 0 0 0
470 157 1 0.5897 8.630192605691226 9.07356234194773 7.758609549571269 0 0 0
168 56 1 0.5897 8.797743873747555 8.120891154907577 5.708208956805017 0 0 0
62 21 1 0.5897 8.639360816286452 5.482343136327274 7.21861701076541 0 0 0
469 157 2 -1.1794 9.126055179554601 9.334987120903996 6.982740130958643 0 0 0
61 21 2 -1.1794 9.30333375363649 5.336410199281994 6.544759213128701 0 0 0
499 167 2 -1.1794 7.462539081865335 8.46077595908351 9.047951310904855 0 0 0
167 56 1 0.5897 8.826541786347738 6.620145363791703 5.510899100062546 0 0 0
136 46 2 -1.1794 5.968835806310122 7.120356314744989 5.487093570885167 0 0 0
29 10 1 0.5897 6.818776904568932 0.8158176927619099 5.2061054013040176 0 0 0
138 46 1 0.5897 6.896411158364218 7.264286967496855 5.299346664926536 0 0 0
370 124 2 -1.1794 7.969663805260932 4.302328360117545 10.77438354137756 0 0 0
385 129 2 -1.1794 9.07685394813643 5.599730473780145 13.814742535538471 0 0 0
682 228 2 -1.1794 5.346673302051103 2.7051420899665213 14.28713946951525 0 0 0
685 229 2 -1.1794 9.211152926892908 2.8469105317127417 13.729185334756632 0 0 0
386 129 1 0.5897 8.974163234723042 4.703269991617618 13.495258961328176 0 0 0
331 111 2 -1.1794 5.85219933570013 4.629936154055546 12.41314922705139 0 0 0
372 124 1 0.5897 7.278780356844 4.412633689701315 11.427653378263528 0 0 0
382 128 2 -1.1794 8.40166453827989 1.0141561498107938 11.915939189144593 0 0 0
684 228 1 0.5897 5.478695505266623 3.450307661232431 13.701039858059314 0 0 0
354 118 1 0.5897 5.527349896697714 1.4315248181382287 13.032853044601042 0 0 0
384 128 1 0.5897 9.048344958846403 1.0784386065354719 11.213153143478992 0 0 0
353 118 1 0.5897 6.656769486585138 0.9768003318008488 12.133052583076683 0 0 0
686 229 1 0.5897 8.767726952012122 2.6236821502863004 14.547550955884686 0 0 0
383 128 1 0.5897 8.669547962010974 1.6792864580570939 12.55001572246583 0 0 0
352 118 2 -1.1794 5.718722246038162 0.8634481626372675 12.28663194533327 0 0 0
460 154 2 -1.1794 6.230852568267496 7.380367230965321 12.029302102804667 0 0 0
793 265 2 -1.1794 9.358279820149221 9.260070775149835 14.222099455009594 0 0 0
705 235 1 0.5897 7.9097092384539724 5.830966829594151 15.212907100624124 0 0 0
462 154 1 0.5897 5.579753367134694 7.594949789645821 11.36126805574817 0 0 0
492 164 1 0.5897 8.0918223985437 7.6866289417757905 11.653055819038526 0 0 0
490 164 2 -1.1794 8.993043867407918 7.6280902979610765 11.97041382147305 0 0 0
491 164 1 0.5897 9.531168258939946 7.732781505603238 11.185774022873895 0 0 0
794 265 1 0.5897 9.115723807932335 8.74363091000428 13.453573032103197 0 0 0
461 154 1 0.5897 5.985155893572395 7.915043156896449 12.784242678159337 0 0 0
791 264 1 0.5897 5.961869853518385 9.086740189159228 14.827063044413004 0 0 0
790 264 2 -1.1794 5.523791489723586 9.172419000946045 13.98035298745374 0 0 0
387 129 1 0.5897 9.07922210977484 6.137865667336192 13.023182361024382 0 0 0
333 111 1 0.5897 6.000017547311384 5.572702382006702 12.338217475180846 0 0 0
332 111 1 0.5897 5.168512034774739 4.4423266713907275 11.770012760403086 0 0 0
824 275 1 0.5897 8.020409053365487 8.913872362158308 15.400739394942445 0 0 0
377 126 1 0.5897 9.822317609057441 4.252518361057127 10.528182349434932 0 0 0
717 239 1 0.5897 6.803929538408894 2.4156168597000125 15.46205339798443 0 0 0
371 124 1 0.5897 7.82362531219055 3.426751798968989 10.41620796890059 0 0 0
785 262 1 0.5897 5.905355801203295 6.347936451974559 19.320800607085186 0 0 0
707 236 1 0.5897 8.91638355067342 0.21192395937857555 19.32322638344135 0 0 0
38 13 1 0.5897 9.150949156404456 2.210253646717346 20.06559236963703 0 0 -1
144 48 1 0.5897 5.510643369097546 8.385882272254664 20.4074169240547 0 0 -1
816 272 1 0.5897 8.877486287982059 8.20029940413655 19.304518963194603 0 0 0
694 232 2 -1.1794 8.168686624098584 4.198563165330855 17.84710548421758 0 0 0
677 226 1 0.5897 5.312189805048909 0.9063014227132328 18.2363723533395 0 0 0
695 232 1 0.5897 7.961556537361355 3.392923991880243 17.373518909560225 0 0 0
708 236 1 0.5897 7.713781653263691 0.9316284719168958 18.750616997337087 0 0 0
715 239 2 -1.1794 7.631967447983282 2.2040600137424127 15.893234275829876 0 0 0
655 219 2 -1.1794 5.935045396277128 4.532269275271598 19.429843773072548 0 0 0
657 219 1 0.5897 6.723761668456364 4.419884537669761 18.899192204425905 0 0 0
706 236 2 -1.1794 8.666825377517783 0.987612568728399 18.820967073176476 0 0 0
716 239 1 0.5897 7.60444732703552 1.2547690385055617 16.01307692722646 0 0 0
676 226 2 -1.1794 5.9213610513920205 0.6907697837724788 18.942545794514892 0 0 0
696 232 1 0.5897 7.936902058018366 4.9006898590128 17.239232918475498 0 0 0
702 234 1 0.5897 9.957958276660117 4.153329185209419 17.819373768092756 0 0 0
35 12 1 0.5897 5.547680723826044 1.7240852298659122 20.42398973771909 0 0 -1
710 237 1 0.5897 9.241081293905305 4.657789538314682 20.446161429446125 0 0 0
703 235 2 -1.1794 7.410793721181561 6.013140313504504 16.00920422005983 0 0 0
814 272 2 -1.1794 8.67437331040619 7.485879100655543 18.700730658926837 0 0 0
784 262 2 -1.1794 5.959444552815749 7.274874767126105 19.088155060525043 0 0 0
815 272 1 0.5897 8.836841926243345 6.690046672721942 19.20716248176667 0 0 0
823 275 2 -1.1794 7.310393770408744 8.836818115649617 16.038076187160083 0 0 0
786 262 1 0.5897 6.873031595046343 7.405590830613214 18.83394401985488 0 0 0
825 275 1 0.5897 7.2816032871124765 7.90464935308318 16.25371500991813 0 0 0
704 235 1 0.5897 6.494993267158077 5.970057761155022 15.733876520323204 0 0 0
656 219 1 0.5897 5.2122440952637055 4.383826460556725 18.820105650692685 0 0 0
709 237 2 -1.1794 9.220687705084114 5.609258546072364 20.548947352296988 0 0 0
145 49 2 -1.1794 9.240788852332534 9.40800517035653 20.595262539083677 0 0 -1
231 77 1 0.5897 5.315224137858708 19.077907614849664 1.3750299846327725 0 0 0
262 88 2 -1.1794 7.77749887232751 17.326429447674606 3.6892296433965948 0 0 0
156 52 1 0.5897 8.925131267976454 10.937423575986255 3.872036379033159 0 0 0
163 55 2 -1.1794 7.2273294191961455 12.730523855725917 2.0215400790477087 0 0 0
165 55 1 0.5897 7.3782937968150515 12.059735000113887 2.687450854719725 0 0 0
285 95 1 0.5897 7.560608136947181 14.634675422755944 1.9721210565124334 0 0 0
164 55 1 0.5897 6.3021113973645395 12.63861940219523 1.7937554187488696 0 0 0
276 92 1 0.5897 9.22054047270699 14.104826469932238 4.4579581295676105 0 0 0
154 52 2 -1.1794 7.974502093012026 10.8249172442603 3.875965209466392 0 0 0
819 273 1 0.5897 8.294438218019417 12.275962178002276 0.5852959879225118 0 0 1
275 92 1 0.5897 7.7923824280345695 14.089402699564426 4.960260532606497 0 0 0
250 84 2 -1.1794 5.261250742402116 15.579537539525973 0.18994425481433333 0 0 0
272 91 1 0.5897 7.440855252398778 18.690158969989007 2.4461130348010482 0 0 0
927 309 1 0.5897 8.59264522922459 18.88724191310031 0.5189207356963605 0 0 1
283 95 2 -1.1794 7.561042516108078 15.547582626430504 1.6842730112719495 0 0 0
264 88 1 0.5897 8.715341529611333 17.353022416994236 3.8792497536029575 0 0 0
254 85 1 0.5897 8.838886808243885 16.00772182016832 0.608241842949965 0 0 0
251 84 1 0.5897 6.023994373393894 15.652352910405481 0.7637013527193072 0 0 0
246 82 1 0.5897 5.213395460085024 14.063345277992775 4.668774034874636 0 0 0