#include		in.partitions
include		in.temp
variable        temperature equal 47.72
variable	tempDamp equal 100.0
include		in.pressure
variable        pressure equal 2140.5
variable        pressureDamp equal 1000.0 # This is 1 ps
include		in.seed
variable        seed equal 745823

units		real
atom_style	full

read_restart	restart.lmp.${pid}
read_restart	restart.lmp.1
Reading restart file ...
  restart file = 30 Jul 2021, LAMMPS = 30 Jul 2021
  restoring atom style full from restart
  orthogonal box = (0.038044235 0.076178224 0.010509138) to (19.961957 19.923823 20.689489)
  4 by 2 by 4 MPI processor grid
  restoring pair style lj/cut/tip4p/long/omp from restart
  restoring bond style harmonic/omp from restart
  restoring angle style harmonic/omp from restart
  972 atoms
  648 bonds
  324 angles
Finding 1-2 1-3 1-4 neighbors ...
  special bond factors lj:    0        0        0       
  special bond factors coul:  0        0        0       
     2 = max # of 1-2 neighbors
     1 = max # of 1-3 neighbors
     1 = max # of 1-4 neighbors
     2 = max # of special neighbors
  special bonds CPU = 0.002 seconds
  read_restart CPU = 0.007 seconds
include 	in.setup
variable	out_freq equal 1000
variable	out_freq2 equal 10000
variable	out_freq3 equal 1000

timestep	2.0

neigh_modify    delay 7 every 1

include		in.tip4p
# This is TIP4P/Ice

# create groups ###
group ox type 2
324 atoms in group ox
group hy type 1
648 atoms in group hy

# set charges - beside manually ###
set group ox charge -1.1794
Setting atom values ...
  324 settings made for charge
set group hy charge 0.5897
Setting atom values ...
  648 settings made for charge

# ### TIP3P Potential Parameters ###
pair_style lj/cut/tip4p/long/omp 2 1 1 1 0.1577 8.5
pair_coeff 1 1*2 0.000 0.000
pair_coeff 2 2 0.21084 3.1668
bond_style  harmonic
bond_coeff  1 450 0.9572
angle_style harmonic
angle_coeff 1 55 104.52
kspace_style pppm/tip4p/omp 1.0e-5
pair_modify tail yes

thermo          ${out_freq}
thermo          1000
thermo_style    custom step temp pe etotal epair emol press lx ly lz vol pxx pyy pzz pxy pxz pyz enthalpy

restart 	${out_freq3} restart.lmp.${pid} restart2.lmp.${pid}
restart 	1000 restart.lmp.${pid} restart2.lmp.${pid}
restart 	1000 restart.lmp.1 restart2.lmp.${pid}
restart 	1000 restart.lmp.1 restart2.lmp.1


include         in.dump
dump            myDump all atom ${out_freq2} dump.water.${pid}
dump            myDump all atom 10000 dump.water.${pid}
dump            myDump all atom 10000 dump.water.1
dump            myDump2 all dcd ${out_freq2} dump.dcd
dump            myDump2 all dcd 10000 dump.dcd
dump_modify     myDump append yes
dump_modify     myDump2 append yes


variable natoms 	equal  "count(all)"                        # NUMBER ATOMS
variable H      	equal  "enthalpy/v_natoms"                 # ENTHALPY-per-atom
variable Vol      	equal  "vol/v_natoms"                 # volume-per-atom
fix AVG all 		ave/time ${out_freq} 1 ${out_freq} v_Vol v_H file vol_enthalpy.dat
fix AVG all 		ave/time 1000 1 ${out_freq} v_Vol v_H file vol_enthalpy.dat
fix AVG all 		ave/time 1000 1 1000 v_Vol v_H file vol_enthalpy.dat


timer           timeout 02:55:00 every 1000
New timer settings: style=normal  mode=nosync  timeout=02:55:00

fix 		1 all shake 1e-6 200 0 b 1 a 1
       0 = # of size 2 clusters
       0 = # of size 3 clusters
       0 = # of size 4 clusters
     324 = # of frozen angles
  find clusters CPU = 0.001 seconds
fix             2 all nph aniso ${pressure} ${pressure} ${pressureDamp}
fix             2 all nph aniso 2140.5 ${pressure} ${pressureDamp}
fix             2 all nph aniso 2140.5 2140.5 ${pressureDamp}
fix             2 all nph aniso 2140.5 2140.5 1000
fix             3 all temp/csvr ${temperature} ${temperature} ${tempDamp} ${seed}
fix             3 all temp/csvr 47.72 ${temperature} ${tempDamp} ${seed}
fix             3 all temp/csvr 47.72 47.72 ${tempDamp} ${seed}
fix             3 all temp/csvr 47.72 47.72 100 ${seed}
fix             3 all temp/csvr 47.72 47.72 100 745823


run             250000
PPPM initialization ...
  extracting TIP4P info from pair style
  using 12-bit tables for long-range coulomb (../kspace.cpp:340)
  G vector (1/distance) = 0.37286933
  grid = 24 24 25
  stencil order = 5
  estimated absolute RMS force accuracy = 0.0033518777
  estimated relative force accuracy = 1.009408e-05
  using double precision FFTW3
  3d grid and FFT values/proc = 3458 576
Last active /omp style is kspace_style pppm/tip4p/omp
Neighbor list info ...
  update every 1 steps, delay 7 steps, check yes
  max neighbors/atom: 2000, page size: 100000
  master list distance cutoff = 10.8154
  ghost atom cutoff = 10.8154
  binsize = 5.4077, bins = 4 4 4
  1 neighbor lists, perpetual/occasional/extra = 1 0 0
  (1) pair lj/cut/tip4p/long/omp, perpetual
      attributes: half, newton on, omp
      pair build: half/bin/newton/omp
      stencil: half/bin/3d
      bin: standard
Per MPI rank memory allocation (min/avg/max) = 10.19 | 10.20 | 10.21 Mbytes
Step Temp PotEng TotEng E_pair E_mol Press Lx Ly Lz Volume Pxx Pyy Pzz Pxy Pxz Pyz Enthalpy 
41000000    52.971254   -5151.4846    -5049.325   -5151.4846            0    2449.3616    19.923913    19.847645     20.67898    8177.3523    2501.0672    2882.3324    1964.6851    229.89959    94.258819     36.82525   -4757.2184 
41001000    48.048815   -5160.8572   -5068.1911   -5160.8572            0    2160.6095     19.89098    19.884205    20.725416    8197.2407    2627.5081    2113.8731    1740.4474   -182.41137    806.59534   -107.86422   -4809.8938 
41002000    47.715458   -5156.7599   -5064.7366   -5156.7599            0    2950.6761    19.894901    19.882689     20.64413    8166.0772    2698.6634     2805.256    3348.1088   -298.68215   -460.96568    117.68531   -4713.3292 
41003000    46.549683   -5158.4017   -5068.6268   -5158.4017            0    2305.4546    19.958625     19.83884    20.763732    8221.5238    1579.3449    3279.7504    2057.2686     126.2694    449.80707   -127.29971    -4792.197 
41004000    45.308208    -5160.111   -5072.7303    -5160.111            0    1374.5188    19.978194    19.900359    20.576713    8180.7504    950.51207    1440.6174    1732.4269   -73.010501    347.81242    435.90606   -4908.7394 
41005000    45.307069   -5154.3218   -5066.9433   -5154.3218            0    2094.6712     20.00055     19.92901    20.562299    8195.9504    1156.5211    2221.8401    2905.6523   -5.0476732    151.44604     294.1761   -4816.5682 
41006000    49.034782   -5157.6734   -5063.1057   -5157.6734            0    2272.7761    19.905948    19.964329    20.596122    8185.0818    2023.9935    2080.4413    2713.8936    382.21798    399.20128    219.30309    -4791.802 
41007000    48.035024   -5158.7076    -5066.068   -5158.7076            0    2237.7873    20.009797    19.900368    20.615794     8209.257    1599.0876    2303.8536    2810.4208   -79.929815    407.70794    280.84591    -4798.152 
41008000    48.101989   -5158.6548    -5065.886   -5158.6548            0    2247.4677    19.881009    19.846704    20.688554    8163.1341    2309.2742    2362.1883    2070.9408   -195.87694   -95.828863   -2.7487998   -4798.3229 
41009000    48.263074   -5153.5514    -5060.472   -5153.5514            0    2091.7034    19.964378    19.863798    20.651923    8189.8994    1797.7229    2852.5331    1624.8543    -66.82301    167.73163   -343.87756   -4810.6362 
41010000    48.507478    -5155.998   -5062.4473    -5155.998            0    3179.6761    19.891156    19.860291     20.65522    8159.7238      3430.91    2985.0293    3123.0889    -90.96053    880.54115   -206.87578    -4684.062 
41011000     47.48277   -5159.7401   -5068.1656   -5159.7401            0    2411.3626    19.911099    19.936792    20.668314    8204.5651     2827.767    1914.1723    2492.1484   -69.697145    747.66001    850.40279   -4779.6336 
41012000    50.626811   -5156.9839   -5059.3458   -5156.9839            0    1639.1545    19.948024    19.879801    20.737327    8223.6514    1714.6538     1815.769    1387.0406   -247.20144    184.28051    118.13257   -4862.7563 
41013000     49.57786   -5155.7966   -5060.1815   -5155.7966            0    2159.0323    20.023903    19.892367    20.593134    8202.7155     2288.329    1941.4637    2247.3043   -468.75278    438.10584    -518.1516   -4801.9004 
41014000    45.377504   -5157.1496   -5069.6352   -5157.1496            0    1577.9645    20.017121    19.812995    20.692984    8206.8194    1606.9648    1623.6994    1503.2292   -291.67725    371.37538    539.26171   -4880.7718 
41015000    47.552738   -5158.8355    -5067.126   -5158.8355            0    1923.8698      19.9509    19.922793    20.560358    8172.2826    2392.7212    1114.0729    2264.8152   -501.96841    144.40666    288.79781   -4837.8309 
41016000    46.858766   -5157.3069   -5066.9358   -5157.3069            0    1965.8542    19.999961    19.893475    20.610618    8200.3202    1624.9451    2151.0373    2121.5803     130.7715    763.02265    -214.0395   -4831.8329 
41017000    46.666142     -5157.55   -5067.5505     -5157.55            0    2350.9441    19.904576    19.948209    20.581481    8172.0958    2650.2372      1514.49    2888.1051   -92.543753    122.87449    186.42809   -4787.3611 
41018000    46.599352   -5161.0994   -5071.2286   -5161.0994            0    2754.1061    19.918061     19.84816    20.669557    8171.4381    2878.5075    3030.4718     2353.339   -101.01015    413.83063   -152.96758   -4743.0162 
41019000    46.555488   -5157.4328   -5067.6467   -5157.4328            0    1684.2485    20.017058    19.894653    20.633145    8216.7877    751.19069    2266.0155    2035.5393   -198.12107     82.23169   -71.743437   -4865.8174 
41020000    47.696546   -5162.4877   -5070.5009   -5162.4877            0    1364.3815    19.981057    19.931635     20.66891    8231.4991    1574.8382     1010.056    1508.2503    161.43649    338.97833    698.06333   -4906.7097 
41021000    46.410997   -5160.7014   -5071.1939   -5160.7014            0     2146.536    19.930047    19.923753    20.643934    8197.3209    2586.4862    1441.0511    2412.0707   -190.62822    880.55411   -146.90906   -4814.5765 
41022000    45.815598   -5154.3652    -5066.006   -5154.3652            0    2453.5282    19.910298    19.820832     20.75408    8190.3625     1891.064    3074.9138    2394.6068   -134.23535    361.40494   -865.10131   -4772.9368 
41023000    48.048018    -5163.725   -5071.0604    -5163.725            0    2402.5158    19.917125    19.962439    20.599449    8190.2254    2327.1673    2142.7247    2737.6554    -119.4756    13.816286    122.30823   -4784.0894 
41024000     49.92405   -5156.4656   -5060.1829   -5156.4656            0    1619.2104    19.988046    19.853507     20.83726    8268.9086    1387.8775    1629.6557    1840.0981    -189.4594   -151.99576    326.25055   -4864.9166 
41025000    50.345694   -5156.6731   -5059.5772   -5156.6731            0    2213.1685    19.816795    19.917077    20.702373    8171.0742    2516.4673    2480.3068    1642.7315   -316.00856   -14.142809    227.66492   -4795.8411 
41026000    49.620258   -5157.4437   -5061.7469   -5157.4437            0     2029.778    19.927703    19.902382    20.689597    8205.6752    1622.1621    2611.4323    1855.7396   -204.05323    48.232037   -124.73755   -4818.8406 
41027000    49.107798    -5154.803   -5060.0945    -5154.803            0    1920.3747    19.956512    19.956767    20.532564     8177.452    2357.9082    961.96468    2441.2513   -155.88865   -241.26144   -194.06948   -4831.0711 
41028000    48.072982    -5162.817   -5070.1042    -5162.817            0    1631.3769    19.903551    19.933938    20.708236    8216.1197    1765.8432    1322.2797    1806.0078   -130.49788   -195.86601    232.06937   -4874.6266 
41029000    46.954548   -5155.5597   -5065.0039   -5155.5597            0    2058.1329    19.837559    19.917315    20.719282    8186.4141    2148.7437    2105.3373    1920.3178   -17.748153    265.38247   -223.86413   -4819.2825 
41030000    47.482228   -5154.8088   -5063.2354   -5154.8088            0    1835.1523    19.985902    19.923457    20.563842    8188.2801    1263.5905    1657.1391    2584.7274   -388.65651     121.7424   -101.98683   -4844.0858 
41031000    50.128005   -5159.5511    -5062.875   -5159.5511            0    2510.2318    19.965802    19.890768    20.606337    8183.5005     1986.736    2749.4391    2794.5205   -286.65722   -816.63739    63.063593    -4763.284 
41032000    47.274465    -5155.508   -5064.3352    -5155.508            0     2245.937    19.909083    19.897722    20.716011    8206.5523    2587.0144    2475.1278    1675.6689    -13.73809    270.42832   -3.2982481   -4795.5322 
41033000    47.649347   -5157.6862   -5065.7904   -5157.6862            0    1922.0664    19.982386     19.85234    20.714501    8217.3831    1844.3524    2331.9663    1589.8804    32.432988    597.39662   -694.43948   -4835.4459 
41034000    44.263577   -5155.3958   -5070.0298   -5155.3958            0     1704.023    20.015659    19.845893    20.650763    8203.0738    1229.1163    2013.5493    1869.4035    80.566033     299.5286   -65.720143   -4866.1717 
41035000    47.130958     -5166.56    -5075.664     -5166.56            0    2559.3774    19.979064    19.883719    20.610408    8187.6517    1783.1542    3010.7578    2884.2203    -61.85719    109.94423   -408.94381   -4770.0525 
41036000     46.49139   -5162.0423   -5072.3797   -5162.0423            0    2232.9757     19.85982    19.938729     20.75811    8219.7872    3259.9768    1749.4537    1689.4966    138.59808    984.91386   -69.131701   -4804.6969 
41037000     47.25693    -5159.191    -5068.052    -5159.191            0    1724.1926    19.905791    19.916235    20.710045    8210.4643    2348.1897    917.52929    1906.8588   -98.768983   -126.03778    53.119518   -4861.5951 
41038000    48.220101   -5156.0118   -5063.0153   -5156.0118            0    2240.9512    19.884997    19.941513    20.672331    8197.3427    2895.7624    1851.5201    1975.5711    161.46119   -29.286257    -476.8672   -4795.1099 
41039000    46.326487   -5160.6864   -5071.3419   -5160.6864            0    1873.1516    19.812939    19.932034    20.789357      8209.97    3091.2698    1319.3426    1208.8423   -382.38271   -275.06306   -712.38167    -4847.062 
41040000    47.307914   -5158.1543   -5066.9171   -5158.1543            0    2527.5944    19.998269      19.8325    20.647127    8188.9739    2219.6288    2662.6473    2700.5071   -260.03626   -408.89655    -400.1906   -4765.0521 
41041000    48.541095   -5159.6227   -5066.0071   -5159.6227            0    2325.2744    19.916568    19.935081    20.626547     8189.531    2551.1107    1973.3238    2451.3886   -341.74592   -486.03703   -44.039385   -4788.2858 
41042000     45.99296   -5157.3443    -5068.643   -5157.3443            0    1916.9862    19.965451    19.850733    20.621433    8172.8685    1698.4851    2295.1548    1757.3189    -204.5878    89.093746   -148.13135   -4840.1518 
41043000    48.427409   -5156.7344   -5063.3381   -5156.7344            0    2248.0685    19.801476    19.981066    20.696423    8188.6349    3044.3273    1542.8512     2157.027    -321.8835    441.68071   -419.27691   -4794.8673 
41044000    48.059466   -5164.4426   -5071.7559   -5164.4426            0    2625.6074    19.862409    19.912599    20.658175    8170.5598    2799.8378    2362.8414     2714.143   -289.88613    349.25664    -168.3441   -4758.8905 
41045000    48.058711   -5166.2074   -5073.5221   -5166.2074            0    2980.0456    19.876576    19.860826    20.673671    8161.2465    2814.6308    2974.5045    3151.0014    148.80547     -205.996   -323.12371   -4718.8269 
41046000    45.872039     -5159.45    -5070.982     -5159.45            0    2068.5711    19.935939    19.828968    20.782074    8215.3426    2149.2121    1856.9577    2199.5434    39.700415    126.70051     344.4585   -4823.1416 
41047000    48.228595   -5158.9445   -5065.9316   -5158.9445            0    2257.7412     19.90697    19.817413    20.704467    8168.0088    2401.7384     2277.842    2093.6431    -241.4325   -162.90355   -157.58187   -4796.9849 
41048000    46.722458   -5157.9273   -5067.8191   -5157.9273            0    2829.5772    19.754402    19.951872    20.664903    8144.8092    3486.2916     2255.754     2746.686   -147.00685    898.85273   -306.98752   -4731.7115 
41049000    47.510658   -5156.5603    -5064.932   -5156.5603            0    1964.8687    19.958592     19.82233    20.701121    8189.8976    2127.8211    1873.8344    1892.9505    -110.7453   -617.95365    -108.5566   -4830.2456 
41050000    46.795131    -5163.106   -5072.8576    -5163.106            0    2416.6179    19.914366    19.800362    20.760367    8186.0551    3108.5148    2274.8291    1866.5098    -181.9373    680.37608   -72.236118   -4784.3492 
41051000    50.703015   -5151.1874   -5053.4024   -5151.1874            0    2438.0814    19.883886    19.941173    20.697914    8206.8892    2549.6417    2068.6177    2695.9848   -347.19866    126.96045   -194.99699   -4761.5907 
41052000    46.920964   -5160.4599   -5069.9689   -5160.4599            0    1367.4038    20.005286    19.748963    20.726379    8188.6531    676.99966    1686.6065    1738.6053    -105.9263     442.9432   -373.78111   -4906.6692 
41053000    44.990773   -5159.7843   -5073.0158   -5159.7843            0    2067.3143    19.909055    19.873544     20.66313    8175.6463    2415.3887    1997.8714    1788.6829   -125.05624   -110.91407   -112.08163   -4826.5229 
41054000    48.647453   -5155.1481   -5061.3274   -5155.1481            0    2311.5555    19.887304    19.838809    20.747671    8185.7953    2667.3958    2141.0136     2126.257   -153.62082    348.50478   -395.67772   -4785.3706 
41055000    48.399487   -5157.8769   -5064.5345   -5157.8769            0    2322.2093    19.853022    19.899414    20.702406    8178.7653    1464.5248    3192.4517    2309.6513   -78.084591    83.026476   -536.67491   -4787.5439 
41056000    49.698797    -5154.979   -5059.1306    -5154.979            0    1429.7725    19.973063    19.900444    20.699611    8227.5326    1394.9922    1242.5386    1651.7869   -135.59139   -331.17664    -287.2781   -4887.5721 
41057000    46.021232   -5161.4955   -5072.7396   -5161.4955            0    2566.1632    19.912239    19.840888    20.693059    8175.3411    2468.2497    2735.2247    2495.0152    -77.20826    883.04793    307.86113   -4766.7787 
41058000    47.517966   -5158.0758   -5066.4334   -5158.0758            0    2265.9107    20.005675     19.79322    20.664712    8182.7446    2162.8966    2563.4133    2071.4221   -291.21366    117.78651    276.62378   -4796.0266 
41059000    46.774324   -5156.6764   -5066.4682   -5156.6764            0    2440.0047    19.883176    19.880627    20.658104    8165.9421    1939.6675    3242.2682    2138.0785   -19.770669   -77.624982   -152.16129   -4775.8834 
41060000    48.436905   -5164.1666    -5070.752   -5164.1666            0    1119.8393    19.977665    19.894383    20.728819    8238.5302     364.0319    1812.1331    1183.3528    103.21923    959.04076    478.20205   -4936.2027 
41061000    48.499597   -5157.5147   -5063.9792   -5157.5147            0    2274.7828    19.864476    19.871932    20.646614    8150.1581    1961.1174    2540.0713    2323.1597    73.261641    141.40156    524.66821   -4793.5946 
41062000    50.678417    -5154.795   -5057.0574    -5154.795            0    2648.9994    19.872144    19.837361    20.739726    8175.8261    3632.6832    2090.3749      2223.94   -244.30993    725.88516    413.13826   -4741.2012 
41063000    49.281152   -5157.1567   -5062.1139   -5157.1567            0    1725.6424    19.908232    19.916597    20.649544    8187.6317    1296.1729    1918.6416    1962.1129   -426.31102    535.35656    469.91965    -4856.058 
41064000    49.710506   -5163.6467   -5067.7758   -5163.6467            0    1631.4071    19.864319    19.910759    20.731323     8199.522    2525.2949    1161.7147    1207.2118    -422.9243    354.84116    209.60516   -4872.6895 
41065000    45.765069   -5154.5075   -5066.2457   -5154.5075            0    2434.6578     19.88739     19.86083    20.671642    8164.8867    2446.2681    2536.0641    2321.6411    116.31373    898.20004    155.87846   -4776.3352 
41066000    49.386773   -5152.2334   -5056.9868   -5152.2334            0    2411.6905    19.893887    19.914609    20.623264    8170.5039     2617.057    2256.8106    2361.2039   -74.086664   -181.70944   -638.17543   -4769.6136 
41067000    47.934029   -5162.7195   -5070.2747   -5162.7195            0    1705.8193    19.917288     19.90449    20.667453    8193.4764    2366.9206    1054.6674    1695.8698   -104.38418    253.04173    197.99183   -4866.4405 
41068000    46.957198   -5156.8515   -5066.2906   -5156.8515            0    2414.8472    19.883159    19.840705    20.708281    8169.3319    3012.4476    2470.8415    1761.2527    50.176156    236.00508   -217.50948   -4778.5825 
41069000    45.395246   -5162.6023   -5075.0538   -5162.6023            0    2442.9342    19.912745     19.92568    20.691321    8209.7987    2578.3879    2017.0954    2733.3192   -100.86225    432.30796    175.61763   -4782.5576 
41070000    47.059569   -5156.3999   -5065.6415   -5156.3999            0    1637.1086    19.987856    19.869698    20.664938    8207.1348    418.03084    2780.4622    1712.8329   -75.704534    261.63227    211.79237   -4869.6917 
41071000    48.117171   -5158.9965   -5066.1985   -5158.9965            0    1904.2206    19.979843    19.843921     20.70638    8209.6333    747.14102     3249.899    1715.6218   -3.0938883    104.84792   -367.01122   -4838.2079 
41072000    52.730643   -5155.6519   -5053.9565   -5155.6519            0     3083.791      19.8818     19.94152    20.576203    8157.9155    3557.9196    2343.2075    3350.2459    241.27223    111.30031   -237.55087   -4687.0629 
41073000    47.927144   -5163.1303   -5070.6988   -5163.1303            0    2484.8443    19.996493    19.839863    20.571507     8161.286    2333.2681    2518.0025    2603.2623    -372.5004    252.02892   -51.458632   -4774.9427 
41074000    45.635354   -5159.3124   -5071.3008   -5159.3124            0    1828.8784     19.97096     19.96457    20.596387     8212.019    2230.2341     1316.996    1939.4052   -67.725078    398.53309   -218.95699   -4852.2672 
41075000    46.622581   -5161.4534   -5071.5378   -5161.4534            0    2032.4703      19.8769    19.917821    20.739536    8210.8766    2574.1961    2025.1598    1498.0551    102.85389    423.93555   -561.60708   -4828.1551 
41076000    46.663841   -5156.9327   -5066.9376   -5156.9327            0    2537.0761    19.919582    19.878085    20.625855    8167.0785    2350.4803    2661.6447    2599.1032   -206.16107    287.41257    594.54979   -4764.7503 
41077000    45.451215   -5162.1033   -5074.4468   -5162.1033            0    1949.8683    19.908941    19.908256    20.693536    8201.9301    1956.8106    2072.2123    1820.5819    -174.9875    570.60753    507.13265     -4841.21 
41078000    51.027471   -5158.1706   -5059.7598   -5158.1706            0    1508.9851    19.937031    19.916104    20.665564    8205.6335    1515.0926    1791.4812    1220.3814    23.574857    878.15921   -53.986511   -4879.1784 
41079000    47.239695   -5162.8264   -5071.7207   -5162.8264            0     1561.472    19.940679    19.851876    20.744611    8211.9596    659.89102    2515.1167    1509.4082    5.6533896   -111.69551   -331.62282   -4884.7141 
41080000    48.121784   -5157.9589    -5065.152   -5157.9589            0    1925.7238    19.945304    19.865975    20.733095    8215.1348    1865.2516     1884.784    2027.1359   -598.39796    698.49636   -144.34259   -4834.4323 
41081000    49.550055   -5161.3999   -5065.8385   -5161.3999            0    1916.6858    19.901585    19.871778     20.68718    8181.3633    1033.7333    2883.0914    1833.2326   -128.46935    926.29436    -54.07391   -4837.1457 
41082000    46.414866   -5162.3918   -5072.8768   -5162.3918            0    1756.3608    19.891674    19.932671    20.739085    8222.9265     2186.665    1616.8708    1465.5466    111.41067   -331.59635   -424.56275   -4862.2489 
41083000    47.880595   -5157.9892   -5065.6474   -5157.9892            0    2600.7231    19.810786    19.960689    20.684452    8179.3963     3508.118    2089.1992    2204.8522   -231.31555    427.91442    407.72786   -4755.4121 
41084000    49.299327   -5154.2646   -5059.1867   -5154.2646            0    1818.4631    19.975888    19.855013    20.722699    8219.0682    1464.5932    2676.5818    1314.2144   -33.146226    759.55168   -138.46894   -4841.2135 
41085000    46.349869   -5160.8016    -5071.412   -5160.8016            0    1585.7478    19.922349    19.886917    20.763471    8226.3649    1863.4727    1813.3967     1080.374   -23.346422    186.32035    166.30911   -4881.1649 
41086000    47.395291   -5160.8942   -5069.4884   -5160.8942            0    1519.5097    19.921839    19.865774    20.816583    8238.4284    1643.6097    1461.6439    1453.2754    -263.4331    671.23984    155.13337   -4886.9208 
41087000     46.41269   -5158.5264   -5069.0156   -5158.5264            0    1708.9732     19.90789    19.815567     20.81234    8210.1793    1768.3255    1590.6972     1767.897   -54.140558    471.27936     192.9294   -4864.3882 
41088000    47.340356    -5158.896   -5067.5962    -5158.896            0      1862.77    19.934808    19.956914    20.665924    8221.6739    1299.0361    2383.1107    1906.1631   -218.11066    148.43883   -5.2645192   -4844.2413 
41089000    43.976131   -5159.9456   -5075.1339   -5159.9456            0    2206.8176    19.994945    19.826321    20.668349    8193.4753    1277.1918    2879.0489    2464.2121   -19.620124    510.57932    552.98543   -4811.4337 
41090000    48.121122   -5160.7322   -5067.9266   -5160.7322            0    1732.1899    19.897118    19.886364    20.694364    8188.3732    1503.4603    2004.3221    1688.7873    -175.7871    -330.0366    0.1239003   -4861.0702 
41091000    47.124782   -5160.3048   -5069.4207   -5160.3048            0    1665.7741    19.932537    19.857565    20.708198    8196.5461    1798.6033    1971.4702    1227.2488   -145.56254    542.62943   -165.19928    -4870.297 
41092000    46.576831   -5157.6937   -5067.8664   -5157.6937            0    2306.3064    19.912774    19.835577    20.724144    8185.6507    2093.4464    2872.4653    1953.0074   -191.34741    266.89463   -156.95659   -4792.5411 
41093000    49.479973   -5156.7608   -5061.3345   -5156.7608            0    1878.9939    19.890022    19.909713    20.705371    8199.4229    2514.9178    1280.9983    1841.0656   -12.900667    188.02964   -469.18173   -4836.6441 
41094000    46.982063   -5159.1694   -5068.5606   -5159.1694            0    1605.4547    19.972072    19.886594    20.715763    8227.8138    757.30138    2024.6515    2034.4113   -16.858251    619.45168    193.80495   -4875.9153 
41095000    45.733388   -5161.5278   -5073.3271   -5161.5278            0     1793.461    19.877638    19.916364     20.73003    8206.8172    2563.2417    1137.2872    1679.8541   -63.011409   -214.92152    145.89477   -4858.6713 
41096000    50.586963   -5164.4385   -5066.8773   -5164.4385            0    1454.8683    19.887336    19.905445    20.812832    8239.0983    1400.1478    1896.6823    1067.7749   -604.52264    488.95047   -163.54948   -4892.0621 
41097000    47.303364   -5159.5565    -5068.328   -5159.5565            0    1511.2024    19.978584    19.866042    20.683511    8209.1902     1041.324     1577.217    1915.0663   -255.41444   -56.857627   -159.22318   -4887.4029 
41098000    49.270744   -5161.8469   -5066.8241   -5161.8469            0    2542.2924    19.951707    19.873181      20.6799    8199.6607    1219.0908    3344.7311    3063.0552   -109.61107    169.51509    -195.5864   -4762.8075 
41099000    48.736538   -5160.6862   -5066.6937   -5160.6862            0    2027.3591    19.886344    19.977387    20.582912    8177.1212    1944.1866     1725.611    2412.2796   -197.34194    57.123772   -672.51114   -4824.9211 
41100000    48.842463   -5162.2807   -5068.0839   -5162.2807            0    1965.1731    19.920852    19.869839     20.65618    8176.2146    1372.6393    2585.1641    1937.7159    192.11353   -317.72368    105.78763   -4833.7533 
41101000    47.161038   -5164.8324   -5073.8784   -5164.8324            0    2211.2839     19.91261    19.884919    20.595932    8155.1785    1313.1286    2796.6507    2524.0725   -71.642478     264.5654    85.664193   -4810.8795 
41102000    48.823917   -5160.0603   -5065.8993   -5160.0603            0    2626.8259    19.902753    19.872239    20.671042    8175.6506     2593.479    2903.2896     2383.709    201.63624    648.53707     188.8432   -4752.6937 
41103000    48.707355   -5158.8819   -5064.9456   -5158.8819            0    1280.3526    19.914251    19.876628    20.730174    8205.5863    1219.1855    1391.1431     1230.729   -90.146733    248.82544   -8.4527722   -4911.7258 
41104000    48.240606   -5156.6851    -5063.649   -5156.6851            0    2177.6239    19.877913    19.920618    20.645282    8175.1251    2694.5954    1504.0494    2334.2271     70.40298    352.46099   -158.62458     -4804.02 
41105000    51.148533   -5157.6661   -5059.0218   -5157.6661            0    1875.0257    19.966007      19.8217     20.75846    8215.3719     2265.213    1945.4272     1414.437   -78.781098    15.290707   -29.467356   -4834.3698 
41106000    46.831077   -5160.7859   -5070.4682   -5160.7859            0    2598.0884    19.799232    19.913903    20.768043    8188.4237    3587.8483    2002.8886    2203.5283   -110.08973    614.11269   -313.74447   -4760.2052 
41107000    48.936386   -5158.8685   -5064.4905   -5158.8685            0    2165.8528     19.89057    19.878601    20.677092    8175.6542     1957.747    2355.8517    2183.9597    173.57801    216.23225   -177.75475   -4806.2483 
41108000    47.841195   -5155.2084   -5062.9426   -5155.2084            0    1754.6785    19.843336    19.924132    20.767554    8210.6861    2522.9582    1721.9596    1019.1177    194.16136    255.70341    210.05176   -4852.8296 
41109000    48.916376   -5161.5375   -5067.1982   -5161.5375            0    1575.6403    19.977104    19.885024    20.714906    8228.8969    1996.9288    1233.5952    1496.3968   -80.007652    7.4967522    -278.2259   -4878.1056 
41110000    47.891793   -5156.0983    -5063.735   -5156.0983            0     2203.787    19.982627    19.843493    20.669811    8196.0993    1427.2093    2793.6881    2390.4638   -51.321532    584.78821    164.43163   -4800.3126 
41111000     49.98893   -5157.4419    -5061.034   -5157.4419            0     2106.475    19.982639      19.9164    20.584267    8192.1721    2175.7191    2190.9457    1952.7601   -133.91959    487.03927    123.28387   -4809.3641 
41112000     46.52379   -5153.7652   -5064.0402   -5153.7652            0    2337.3557    19.907886    19.843578    20.708701    8180.8414    2581.9746    2222.9907    2207.1017    110.77128    185.17119   -419.25205   -4785.1722 
41113000    46.628679   -5162.4842   -5072.5569   -5162.4842            0    2160.4598    19.897666    19.989722    20.633646     8207.008    3075.2474    947.69609     2458.436    57.470293    409.60738     744.6466   -4813.9697 
41114000     49.56394   -5159.3891   -5063.8008   -5159.3891            0    1441.1111     19.89595    19.884651    20.728031     8200.507    1139.7626    1854.4547    1329.1161   -154.98059   -244.35751    96.594539   -4891.4497 
41115000    48.028553   -5161.3358   -5068.7087   -5161.3358            0    1880.0415     19.96214    19.850938    20.747974    8221.7414    1056.8872    2577.4319    2005.8054   -178.34531    601.39695    361.53158   -4843.2811 
41116000    46.000652    -5160.649   -5071.9329    -5160.649            0    2464.6156    19.966753    19.838678    20.665461    8185.8781    2806.9147    2357.1135    2229.8186   -112.97421    433.11551    195.04674   -4777.7006 
41117000    46.601713   -5162.4191   -5072.5437   -5162.4191            0    1741.1196    19.976666    19.856783    20.680995    8203.5785    1325.4102    1850.4682    2047.4804    35.202926    488.97081   -191.52083   -4864.2348 
41118000    45.715607   -5159.9237   -5071.7573   -5159.9237            0    2003.5531    19.984735    19.796808    20.697426    8188.6046    1461.1395    2532.6567    2016.8631   -180.87251    1003.9823    768.91731   -4832.4882 
41119000    45.386073   -5160.1639    -5072.633   -5160.1639            0    2366.1194    19.899605    19.879839    20.788622    8223.9987    2823.1851    2265.4379    2009.7353   -249.05671    279.28084    555.31767    -4788.844 
41120000    48.788095   -5158.5262   -5064.4342   -5158.5262            0    2840.0847    19.983008    19.868101    20.587385    8173.6948    3153.1133    2258.4811    3108.6596    82.871152    256.19513   -191.72227   -4725.8821 
41121000    45.085006   -5160.7848   -5073.8346   -5160.7848            0    2170.5045    19.933821    19.880325    20.658176    8186.6464      2978.81     1374.811    2157.8923   -55.646822    665.32572   -287.34904   -4814.6897 
41122000    50.357165    -5157.551    -5060.433    -5157.551            0    2380.1682    19.917734    19.896755    20.620197    8171.7482      2833.31    1994.8733    2312.3212   -141.76985   -62.718342   -248.40921   -4776.7727 
41123000    48.272725   -5160.0299   -5066.9319   -5160.0299            0    2520.8777    19.893957     19.87695    20.710214    8189.4645     2719.514    2706.9313    2136.1879   -6.5513319    381.14386    -405.8421   -4765.8511 
41124000    47.249403   -5153.6855   -5062.5611   -5153.6855            0    3032.8232    19.890438    19.844014    20.609832    8134.8271    3442.0108    2539.9282    3116.5306    240.59604    585.28895    65.058307   -4702.7527 
41125000    48.405206   -5155.4287   -5062.0752   -5155.4287            0    1782.6899     19.93387    19.838735    20.721628    8194.6325    1731.0526     2263.809    1353.2081     46.63143    474.88626    47.240135   -4849.0254 
41126000    47.227792   -5164.7977   -5073.7149   -5164.7977            0    1923.2419    19.940235    19.924022    20.690561    8220.1463    1549.5985    1950.8626    2269.2647   -238.42656   -318.04378    489.91942    -4843.152 
41127000    49.174575   -5165.1124   -5070.2751   -5165.1124            0    2303.5961    19.921773    19.932589    20.647186    8198.8432     2315.886    2219.9484    2374.9539   -243.80851   -248.48814     611.9556   -4794.8302 
41128000    46.216026   -5158.9931   -5069.8616   -5158.9931            0    2323.5477    19.936623    19.928918    20.624808    8194.5527    1918.2092    1897.5405    3154.8934    -166.3295   -329.62311     420.1478   -4792.1764 
41129000    50.851241   -5157.2182   -5059.1473   -5157.2182            0    1872.7499    19.870765    19.950561    20.699841    8206.0984    2190.5148    1921.1342    1506.6007   -222.91465    134.76998    78.477702   -4835.0212 
41130000    46.885171   -5167.0712   -5076.6492   -5167.0712            0    1884.7272    19.893834    19.894711    20.707035    8195.4731    1711.7893    2023.3831    1919.0092   -360.61076    192.93898      21.6575   -4851.3818 
41131000     44.29565   -5159.7964   -5074.3686   -5159.7964            0    2192.2138    19.900344    19.928432     20.66605    8195.7969    2179.7627    2583.9711    1812.9075   -188.41393    66.365542    454.50101   -4812.3392 
41132000    48.884364   -5153.4462   -5059.1686   -5153.4462            0    2787.9699    19.821628    19.838899    20.734461    8153.6045    3785.8291    2106.5992    2471.4813    236.23046   -292.38487    274.63783   -4727.6456 
41133000    48.879235   -5153.8025   -5059.5348   -5153.8025            0    2497.7424    19.830074    19.922193     20.66138    8162.4546    2618.0965    2516.1985    2358.9321   -239.51558       590.81    590.13475    -4762.201 
41134000     46.83637   -5162.1156   -5071.7877   -5162.1156            0    2159.5048    19.907849    19.794368    20.777153    8187.5135    1209.4801    2984.1732     2284.861    27.406677    391.63267    136.04244   -4813.9288 
41135000    46.315144   -5157.4876    -5068.165   -5157.4876            0    2264.1632    19.893566    19.870919    20.704456    8184.5425    1188.0079    3097.0791    2507.4027   -157.48534    482.60324   -751.51779   -4797.9073 
41136000    47.000097   -5157.3552   -5066.7116   -5157.3552            0    2387.9625    19.876759    19.836645    20.796281    8199.7282    2698.4758    2713.5798    1751.8318   -143.62341    654.15419    289.93533    -4781.148 
41137000     45.15722   -5155.8311   -5068.7416   -5155.8311            0    2208.1354    19.993138    19.838941    20.599435    8170.6156    2312.0843    1762.3184    2550.0035   -140.14922    59.654545    605.58745   -4805.6201 
41138000    47.689674   -5162.1672   -5070.1936   -5162.1672            0    2131.4653    19.992768    19.813456    20.758184    8222.8529    2466.0757    2070.6466    1857.6736   -206.01128    413.61105    58.008781   -4814.5843 
41139000    45.124241   -5162.5941   -5075.5682   -5162.5941            0    1322.1715    19.857814    19.923558    20.840994    8245.4958    2051.1906    1239.1698    676.15417   -283.93753    435.70722   -230.33425   -4916.5743 
41140000    48.108765   -5157.6292   -5064.8474   -5157.6292            0    2380.3072    19.954369    19.796514    20.729813    8188.8346    2543.5364    2953.0551    1644.3302   -90.710173    211.22337    297.95121   -4780.5775 
41141000    47.180808   -5159.0099   -5068.0178   -5159.0099            0    2138.8761    19.957753    19.883497    20.607184     8177.547     2298.046    2105.6898    2012.8923    -145.0672    438.43289    434.02013    -4812.933 
41142000    47.730596   -5159.6849   -5067.6324   -5159.6849            0    2636.4609    19.843318    19.920168    20.684896    8176.3719     2384.129    2441.2728    3083.9809   -78.630267   -147.55539     488.7654   -4753.2503 
41143000    46.443829    -5158.852   -5069.2812    -5158.852            0    1527.4896    19.969917    19.855243    20.753248    8228.8197    1410.7555    1211.8858    1959.8274   -21.339231   -237.03559   -323.56537   -4885.9688 
41144000    48.202287   -5161.6157   -5068.6536   -5161.6157            0    1496.8854    19.973115    19.892996    20.721378    8233.1235    959.09942    1992.9282    1538.6284   -79.087651   -259.97049    360.24371     -4888.92 
41145000    47.484951   -5160.4185   -5068.8398   -5160.4185            0    1764.3803    20.017955    19.784169     20.75096    8218.1811    2093.0613    1586.8994    1613.1802   -155.40196   -393.77838   -74.951124   -4857.3722 
41146000    46.334025   -5161.0583   -5071.6993   -5161.0583            0    2381.7753    19.983989    19.826576    20.677113    8192.5632    1724.6558    3190.6472    2230.0227   -75.856253    658.51822    136.84095   -4787.1244 
41147000    45.648796   -5161.9198   -5073.8823   -5161.9198            0    2417.1355     19.95522    19.860212    20.689723    8199.6455    2811.7964    2625.0658    1814.5443   -92.989624    327.04753   -122.41387   -4784.8329 
41148000    44.982574   -5157.4529   -5070.7003   -5157.4529            0    2365.5584    19.883818    19.843213    20.739217    8182.8414    1912.3307    2904.5005    2279.8439    19.830964    456.81885   -257.24392   -4788.3984 
41149000    51.092908   -5161.3826   -5062.8456   -5161.3826            0    2040.8598    19.976421    19.787903    20.770235    8210.2973    2114.4329    2361.2347    1646.9119   -224.59829    344.96063    321.03058   -4818.4756 
41150000    47.768722   -5161.5442   -5069.4182   -5161.5442            0    1586.4009    19.959041    19.903868    20.695387    8221.4929    2201.9627    1027.4005    1529.8395   -141.62091      808.388   -255.90661   -4879.2055 
41151000    49.015962   -5153.0582   -5058.5268   -5153.0582            0    2689.0987    19.893376    19.760409    20.832186    8189.1581    3202.4719    2444.2666    2420.5576    110.55398    178.01489    483.65316   -4737.3665 
41152000    48.208288   -5156.1777    -5063.204   -5156.1777            0    1935.7454    19.833639    19.864973    20.781794    8187.9165    2558.2978     1623.165    1625.7732    190.89543   -128.27966   -160.14746   -4832.0521 
41153000    47.419893   -5159.3871   -5067.9338   -5159.3871            0    2016.0152    19.910035    19.860893    20.690616    8181.7126    2104.0927    2028.7899     1915.163   -422.18851    834.33843   -161.16675   -4827.3791 
41154000    47.695059   -5160.7643   -5068.7804   -5160.7643            0    2136.2013    19.934885    19.860512    20.692111    8192.3589    1739.5579    2801.7961    1867.2498   -25.255559    94.109549    489.01245   -4813.5531 
41155000    47.155211   -5160.4936   -5069.5508   -5160.4936            0    2288.8132    19.981747    19.792023    20.722699    8195.3965    1975.5077    2831.7306    2059.2014    270.48503    680.09862    598.09973   -4795.9885 
41156000    45.073724   -5159.8617   -5072.9333   -5159.8617            0    2095.8617    19.926345    19.835382    20.780462    8213.4084    2393.1651    1940.8252    1953.5949   -162.06268   -104.68292   -245.32651   -4821.8823 
41157000    49.133206   -5160.6109   -5065.8534   -5160.6109            0    2319.3183     19.96284    19.876698    20.630088    8185.9226    1862.7722    2298.6522    2796.5304    -179.3359   -481.88808    276.33045   -4788.9656 
41158000     46.05838   -5162.9718   -5074.1443   -5162.9718            0    1581.8512    19.863581    19.950825    20.713172     8208.523    1635.4492      1430.93    1679.1743   -205.38291      136.296    129.79049   -4884.7764 
41159000    47.620568   -5164.0824   -5072.2421   -5164.0824            0    1933.1023    19.903918    19.883719    20.738942    8207.7249    1543.8691    2437.3202    1818.1176     149.6631    545.98617   -225.17131   -4840.8473 
41160000    46.679224   -5156.4549   -5066.4301   -5156.4549            0    2259.4278     19.89499    19.861383    20.668357    8166.9363    1879.3729     3129.255    1769.6555    -55.30393    116.31685    468.25137   -4797.3178 
41161000    47.148236   -5160.6734    -5069.744   -5160.6734            0    1851.4461    19.883445    19.905013    20.662142    8177.6674    710.09982     2336.965    2507.2736   -355.78588    14.974358    217.15261   -4848.9352 
41162000    47.699956   -5157.6545   -5065.6611   -5157.6545            0     2656.871    19.849569    19.958358    20.653296     8182.109    3160.8144    2268.1689    2541.6296   -139.78661    242.82749    142.66714   -4748.6229 
41163000    49.437612    -5161.283   -5065.9384    -5161.283            0    2301.4078    19.928903    19.851866    20.727431    8200.3087     2508.494    2249.1676    2146.5619   -188.64032   -144.64879    200.40485   -4790.7059 
41164000    45.966489   -5159.4304   -5070.7802   -5159.4304            0    1946.6808    19.853895    19.917764     20.73654    8200.1649    2323.4544    1744.6107    1771.9773   -170.76275    301.49193    491.90249   -4837.9747 
41165000    47.691734   -5160.1145    -5068.137   -5160.1145            0    2645.0413    19.878457    19.882051    20.695248     8179.269    2604.0415    2508.6424      2822.44    121.85544    315.24811   -488.94709   -4752.6199 
41166000    48.202392    -5156.714   -5063.7517    -5156.714            0    2043.1056    19.890869    19.920582    20.690632    8198.4083    2600.9847    1336.9627    2191.3693   -263.51081    462.13459    313.57596    -4819.467 
41167000    47.181914   -5156.5947   -5065.6005   -5156.5947            0    2149.2731    19.943646    19.812577    20.714977    8185.2129    2023.7779     2194.796    2229.2453    96.994424    1111.2892    33.338823   -4809.0354 
41168000    50.193728   -5157.9144   -5061.1116   -5157.9144            0    998.17828    19.912677    19.964803     20.76656    8255.8018    1032.2743    539.77118    1422.4893   -516.77131    163.56536    142.07545   -4940.9285 
41169000    47.812748   -5152.0702   -5059.8593   -5152.0702            0    2188.1588    19.973785     19.85246    20.613974    8174.0333    1696.2244    2417.7588    2450.4934   0.74787424   -86.665062   -647.20638   -4799.0091 
41170000    48.658422    -5157.066   -5063.2241    -5157.066            0    2517.6632     19.95136    19.887108    20.514287     8139.553    2266.6834    2834.1247    2452.1814    44.450238    189.45861    284.34717   -4764.3598 
41171000    48.885972   -5157.0609   -5062.7802   -5157.0609            0    2324.6277    19.934418    19.821399    20.684914    8173.1894    2142.4606    2691.6767    2139.7458   -294.69542    56.861888   -100.36931   -4785.6902 
41172000    47.569031   -5160.3674   -5068.6265   -5160.3674            0    2165.9586    19.930868    19.906473     20.61425     8178.771    2231.6889    2260.4721    2005.7149   -431.53525    286.40907    104.72111   -4810.2732 
41173000    47.096847   -5164.4392    -5073.609   -5164.4392            0    1658.4515     19.94279    19.944846    20.653303    8214.9727    1873.1184    1557.5339    1544.7022    38.620687    227.13937    633.62534    -4874.915 
41174000    48.161444   -5158.6447   -5065.7613   -5158.6447            0    2273.4699    19.918837      20.0184    20.478397    8165.6226    2441.8268    1291.8814    3086.7015   -352.72963    685.19215    966.91055     -4795.02 
41175000    49.002288   -5164.1207   -5069.6157   -5164.1207            0    2239.3211    19.959495    19.863296    20.745487    8224.7842    2143.0932    2259.9068    2314.9633     106.5806    114.26072   -93.070651    -4801.009 
41176000    46.908972   -5162.9349    -5072.467   -5162.9349            0    3002.9093    19.865242     19.89894    20.674693    8172.6494    3400.7736    2952.2089    2655.7452   -197.96935    620.97267   -132.62327   -4714.5512 
41177000    46.503857   -5156.8549   -5067.1683   -5156.8549            0    1924.0384    19.855792    19.960262    20.716209    8210.3889    2402.6653    1536.1512    1833.2986    162.98444    34.258977    37.396767   -4836.7837 
41178000     45.88742   -5155.5639   -5067.0661   -5155.5639            0    2033.2532    19.906803    19.862142    20.650452    8165.0184    1906.0276    2834.7013    1359.0308    47.333974    1022.6954    284.68688   -4824.9496 
41179000    47.904563    -5154.888      -5062.5    -5154.888            0    2427.0057    19.860122    19.934418    20.663397    8180.6384    3517.7727    1546.3406    2216.9037   -127.36756     173.1404   -134.59522   -4772.9431 
41180000    50.539836   -5160.8365   -5063.3662   -5160.8365            0    2487.4554    19.930066    19.887055    20.677245    8195.4326    2391.0281      3066.37    2004.9682   -90.493392    675.34336    582.10613   -4766.0606 
41181000    48.095633    -5163.206   -5070.4496    -5163.206            0    2255.9061    19.870268    19.866993     20.78047    8203.3501    2495.7641    2230.2429    2041.7113   -426.64335    313.58358    377.71995   -4800.5587 
41182000    47.295624   -5159.5809   -5068.3673   -5159.5809            0    2845.6136    19.846655    19.876137    20.777143      8196.06    3748.3111    2337.1342    2451.3956   -52.544183    481.19056    102.06274   -4728.2279 
41183000    45.534476   -5158.1371     -5070.32   -5158.1371            0    2351.8078    19.967434    19.899749     20.51019    8149.6606    2174.9943    2616.2399    2264.1893   -48.878968     408.7801    -229.0559   -4790.7972 
41184000    43.570121   -5157.2991   -5073.2705   -5157.2991            0    1589.3799    19.990291    19.823388    20.696549    8201.5313    2137.7067    1735.8353    894.59779   -107.40021   -155.86706   -482.31469   -4883.1633 
41185000    48.229323   -5155.6104   -5062.5961   -5155.6104            0    2588.0698     19.86628    19.822271    20.740974    8167.6874    2840.5617    2762.0442    2161.6036   -160.76204     66.25579    123.04568   -4754.3121 
41186000    49.092498   -5157.1209   -5062.4419   -5157.1209            0    2428.5154    19.992677    19.832265    20.644692    8185.6218    2273.3771     2537.373    2474.7961   -413.70027    437.24198   -578.36018   -4772.5284 
41187000    47.161249   -5160.4287   -5069.4742   -5160.4287            0     2164.818    19.947009    19.826743    20.687307    8181.5033    1995.3749    2127.0985    2371.9806   -39.985723    61.198827   -1.1538028   -4811.1707 
41188000    45.345358   -5152.7416   -5065.2893   -5152.7416            0    2338.8099    19.948073    19.812522    20.718138    8188.2564    2326.4301    2870.0278    1819.9718   -272.00301    516.59339    494.90085   -4785.9949 
41189000      45.7718   -5158.8701   -5070.5953   -5158.8701            0    1703.6819    19.934911    19.869135    20.656367     8181.769      1928.38    2277.6728    904.99275   -104.51048    161.08896    429.73332   -4867.3074 
41190000    49.478096   -5155.9266    -5060.504   -5155.9266            0    1700.3133    20.024227    19.829044     20.69967    8219.0373    1912.1669    1468.7247    1720.0482   -134.51042   -180.77269    16.550342   -4856.6938 
41191000    45.713446   -5151.8258   -5063.6635   -5151.8258            0    2776.0894    19.866164    19.832652    20.713509     8161.096    3750.7816     1848.391    2729.0955   -210.71886    615.03977   -478.75448     -4733.25 
41192000     46.53524   -5154.7311    -5064.984   -5154.7311            0    2079.9942    19.901094    19.938046    20.669262    8201.3342    2490.3967    1589.6616    2159.9242   -124.14332    500.74159    494.81653      -4816.2 
41193000    48.469117   -5160.7793   -5067.3025   -5160.7793            0     1611.515    19.915831    19.876142    20.754101    8215.5085    1487.6715     2143.732    1203.1414    35.034991     236.4319    205.83224   -4874.2192 
41194000    49.578712   -5158.2857   -5062.6689   -5158.2857            0    2830.7725    19.914085    19.903965    20.646872    8183.7853    2494.1392    2781.9463    3216.2319   -44.077001    2.0232163      458.267   -4724.8103 
41195000    47.355893   -5159.3137   -5067.9839   -5159.3137            0    1789.5588    19.849856     19.91787    20.796899    8222.4045    2002.7005    1611.2017    1754.7743   -15.687163     309.3755   -55.673159   -4853.3884 
41196000    48.084433   -5161.7661   -5069.0312   -5161.7661            0     1931.508    19.896915    19.943744    20.676046    8204.6472    2386.5657    1432.5324    1975.4258   -63.771769    311.30308     630.0022    -4837.914 
41197000    45.771595   -5156.6108   -5068.3364   -5156.6108            0    2094.7642    19.883954    19.927355    20.724925    8211.9327    2064.0348    2454.2961    1765.9616    -55.47573    221.53113    414.57132    -4817.462 
41198000    47.767951   -5154.5785    -5062.454   -5154.5785            0    3026.1864    19.856249    19.923965    20.574005    8139.3889    4042.5005    1995.5378     3040.521   -12.999701    252.92828    424.68218   -4703.2316 
41199000    50.202981   -5160.3825   -5063.5619   -5160.3825            0    1511.0946    19.883365    19.892216     20.80515    8228.9403    1389.9835    2169.0315    974.26883   -57.296685     1070.571    4.1709876   -4882.2144 
41200000    45.752068   -5158.7786   -5070.5418   -5158.7786            0    1838.3359    19.934598    19.828556    20.768184    8209.1291    1014.0981    2619.6178    1881.2919   -194.87889   -82.314779    147.24136   -4850.4531 
41201000    45.687164   -5157.2315     -5069.12   -5157.2315            0    2424.0997    19.956556    19.756965     20.79267    8198.1541     1922.878    2933.5651    2415.8559   -305.69455    531.12687    44.009367   -4779.2906 
41202000    46.827355   -5155.5257   -5065.2153   -5155.5257            0    2742.6505    19.851353    19.927369    20.640164    8164.9441    2654.5841    2841.0806    2732.2868   -36.382257   -242.60652    212.95542   -4738.6277 
41203000    46.863812   -5161.5695   -5071.1886   -5161.5695            0    2390.9753    19.866229    19.969758    20.582211    8165.4527    2544.4641    1644.5557     2983.906   -245.37507    62.233365   -115.52218     -4786.46 
41204000    45.378393   -5158.1393   -5070.6232   -5158.1393            0    2550.7308    19.946716    19.896287    20.659655    8199.1061    2231.0165    2548.9084    2872.2674    103.37903    713.12235   -545.81511   -4765.6182 
41205000    44.294939   -5159.1872   -5073.7607   -5159.1872            0    2278.2993    19.901978    19.837916    20.757097    8195.1879     2459.799    2209.8491    2165.2497    214.40056   -125.92696   -156.83021    -4801.462 
41206000    48.183445   -5165.6722   -5072.7464   -5165.6722            0    1742.1427    19.967072    19.821241     20.70375    8193.9676    2083.5928    1389.9963    1752.8389   -156.27333   -302.69308    282.12449   -4864.5593 
41207000    47.596326   -5159.5446   -5067.7511   -5159.5446            0    2181.4816     19.96451    19.839837    20.706494    8201.6898    2033.3277    2780.8567    1730.2604     -317.832    75.180178    452.99475    -4806.817 
41208000    48.579163   -5159.7681   -5066.0791   -5159.7681            0    2286.0336    19.953356    19.889652    20.642521    8192.3002    2359.6861    1662.2784    2836.1362   -296.38757   -189.49097    343.60586   -4792.9523 
41209000    47.103033    -5160.012   -5069.1698    -5160.012            0    2069.3125    19.853877    19.846602    20.842535    8212.6254    2724.1888    2071.5136    1412.2352   -384.01328    300.24206    411.84828   -4821.3226 
41210000    49.511728   -5155.5672   -5060.0796   -5155.5672            0     2706.443    19.813862    19.887862    20.722953    8165.9903    3163.8532    2750.6165    2204.8593   -326.80693   -308.01279    -229.1294   -4737.7623 
41211000    49.781818   -5161.5197   -5065.5113   -5161.5197            0    2676.4896    19.807057    19.953208    20.661995    8165.9164    3722.2721    1764.2852    2542.9115   -136.23266    74.118529   -369.73512   -4746.7641 
41212000    45.928564   -5156.3531    -5067.776   -5156.3531            0    2002.1611    19.922838    19.881376    20.677335    8190.1567    2025.8491      2108.95    1871.6843    55.999166    102.18745   -398.82763   -4828.6278 
41213000    48.801451   -5157.9383   -5063.8206   -5157.9383            0    1987.7949    19.971814    19.936943    20.647141     8221.215    2410.7049    1378.5541    2174.1258    181.79925    165.23254   -493.04316   -4825.4879 
41214000     48.55232   -5158.2102    -5064.573   -5158.2102            0    2764.9223    19.895796    19.852365    20.735656    8190.1407    3322.8244    2486.8482    2485.0943    30.963053     357.4489   -492.79035   -4734.3174 
41215000     47.17544   -5166.9628    -5075.981   -5166.9628            0    2154.2484    19.891027    19.971709    20.647556    8202.4026    1995.9785     2255.142    2211.6247   -152.98766   -289.34349    36.847213    -4818.282 
41216000    46.078185   -5158.7994   -5069.9338   -5158.7994            0     1805.327    19.908374    19.844126    20.739251    8193.3372    1952.9443    1623.2145    1839.8221    57.723967    829.95512    527.15005   -4854.2127 
41217000    47.768903   -5166.2821   -5074.1558   -5166.2821            0    2301.7563    19.857226    19.953679    20.652356    8182.9735    2563.6048    2113.8833    2227.7809   -229.22437    67.031664   -756.31887   -4799.4635 
41218000    48.485549    -5158.487   -5064.9786    -5158.487            0    1533.6873    19.978153    19.917559    20.710836    8241.1742     940.7151    1689.9531    1970.3938    -207.9805     882.3063    618.35141   -4880.6461 
41219000    49.214686   -5162.5106    -5067.596   -5162.5106            0    1899.2014    20.013221    19.930328    20.622966    8225.8836    1570.4847    2171.5042    1955.6153     160.1134    61.017129    199.16171   -4839.7562 
41220000    46.741683   -5161.9546   -5071.8093   -5161.9546            0    2399.7493     20.02342    19.890172    20.551896    8185.1884    2010.6128    2750.5208    2438.1141   -2.8161151    847.43406    462.59745   -4785.3451 
41221000    47.009837   -5158.5628   -5067.9004   -5158.5628            0    2021.8252    19.999686     19.84077    20.600693    8174.5442    795.78057    2354.9003    2914.7947   -155.29693    877.75804   -557.50765   -4826.8638 
41222000     46.69321   -5161.5233   -5071.4715   -5161.5233            0    2164.2619    19.973171    19.888455    20.614654    8188.8725     1737.338    2361.9904    2393.4572   -144.23131   -446.55843   -282.64177   -4813.0017 
41223000    47.962223   -5160.7168   -5068.2177   -5160.7168            0    2344.5961    19.887848    19.850725    20.605883    8134.9595    1559.4723    2831.9742    2642.3417   -92.207228    257.53973   -708.29122   -4790.0547 
41224000    46.981667   -5158.7084   -5068.1003   -5158.7084            0    1996.5256    19.876711    19.937066    20.641847     8180.019    2346.8684    1424.8212    2217.8873   -7.4470485    396.66459    236.56908   -4829.9204 
41225000    46.130716   -5159.3079   -5070.3409   -5159.3079            0    2304.4221    19.884327    19.924255    20.662604    8186.1188    3108.6635    1610.0831    2194.5196    193.17601    820.08901    -149.7406   -4795.2248 
41226000    47.501344   -5159.2477   -5067.6374   -5159.2477            0    1543.2194    19.957782    19.922931    20.652392    8211.7529    1805.8657    1458.7061    1365.0864    109.57493    301.84843    280.20494   -4882.8214 
41227000    50.572298   -5153.0382   -5055.5052   -5153.0382            0    2038.3043    19.910501     19.91816    20.711054    8213.6013    2315.7593    1791.6237    2007.5299    14.800913   -174.70094    576.77541    -4811.343 
41228000    47.078323   -5152.7513   -5061.9568   -5152.7513            0    2103.9364    19.978319    19.924547    20.626387    8210.5182    2310.7826    1596.0659    2404.9608   -43.146931    1047.2126    738.00758   -4810.0272 
41229000    48.535821   -5157.1025   -5063.4971   -5157.1025            0    2304.9981    19.914393    19.892274    20.682179    8193.0915    1716.6563    3062.6019     2135.736   -58.428969   -347.50944   -185.81728   -4788.0779 
41230000    50.950172   -5157.5316     -5059.27   -5157.5316            0    1994.7395    19.955156    20.007572    20.537097    8199.5225    1961.2459    1703.8612    2319.1113   -495.47293   -258.08375    419.50514   -4820.7358 
41231000    48.759356   -5155.7745    -5061.738   -5155.7745            0    2672.4933    20.006781    19.784661    20.687676    8188.7483    1567.5384    3965.5416    2484.3999   -448.93427     164.9327    288.76389   -4742.5768 
41232000     47.31564   -5156.3141   -5065.0619   -5156.3141            0    1616.1049    19.914982    19.887547    20.690035    8194.4984    1646.6039    1796.6822    1405.0287   -274.72598    214.73037   -304.52261   -4871.9238 
41233000    45.966248   -5158.5548    -5069.905   -5158.5548            0    2158.4621    19.974645    19.841259    20.662473     8188.995    1313.4377    2820.3196    2341.6291    123.74671    95.693045   -256.24133    -4812.124 
41234000      48.3816   -5156.1404   -5062.8324   -5156.1404            0    2482.2649    19.951574    19.843286      20.6788    8186.8361    2325.4169    3399.5534    1721.8243   -70.268449     307.0607    639.04519   -4766.4584 
41235000    46.006107   -5159.1092   -5070.3825   -5159.1092            0     2226.792    19.902489    19.832387    20.708575    8173.9617    3146.9708    1433.4399    2099.9655   -174.02175    553.11131    -633.8096   -4804.9292 
41236000    45.813935   -5161.7797   -5073.4236   -5161.7797            0    1944.0436    19.982235     19.85694    20.685943    8207.8934    1329.4239    2765.0415    1737.6654   -287.53405    150.23501    -199.3989   -4840.7144 
41237000    47.637705   -5158.9266   -5067.0533   -5158.9266            0    2705.4205    19.961161     19.73563     20.75624    8176.8396    1551.2039    4045.7551    2519.3025   -119.56196    316.85443    326.01525   -4744.4297 
41238000    48.728336   -5159.1854   -5065.2087   -5159.1854            0    2278.3423     19.94965    19.838829    20.709726    8196.4473    2622.1409    2470.4331     1742.453    -59.94681   -433.45729    744.73357    -4792.863 
41239000    46.557982   -5156.7813   -5066.9903   -5156.7813            0    2048.2328    19.954578    19.848008     20.64031    8174.7727    2200.6442    1833.9871     2110.067   -14.077879    989.10263   -671.25297   -4822.7987 
41240000      47.9819   -5157.8212    -5065.284   -5157.8212            0    1948.2401    19.895849    19.918371    20.733897    8216.6962    2766.2834    1568.1302    1510.3066   -141.09054    22.578171    16.332341   -4831.8224 
41241000     46.48811   -5159.7659   -5070.1097   -5159.7659            0    2320.1924    19.878189    19.908321    20.670219    8180.0607    2769.0797    2008.9584    2182.5392     62.08446    364.53332    578.27141   -4793.3158 
41242000    48.121624   -5160.6948   -5067.8882   -5160.6948            0    2157.1347     19.92105    19.888775    20.696644    8200.1199    1941.6254     2384.885    2144.8938   -325.71128    301.37525    248.11442   -4809.9157 
41243000    47.417485   -5154.3199   -5062.8713   -5154.3199            0    1913.6534    19.931942    19.920547    20.652484    8200.1758    1977.0953    1876.5872    1887.2779   -41.443116    145.97423    215.65642   -4834.0152 
41244000    48.970018   -5159.2141   -5064.7713   -5159.2141            0    1552.9676    19.878917    19.902685    20.746307    8208.1483    2719.7078    1078.1537    861.04144   -73.612881    545.64622    358.89905   -4878.8696 
41245000    49.555277   -5155.1794   -5059.6079   -5155.1794            0    1724.6169    20.034163    19.836569    20.622602    8195.6089    1290.1522    2077.5031    1806.1956   -125.18953     169.3746   -148.92972   -4853.4738 
41246000    49.824458   -5161.9226    -5065.832   -5161.9226            0    1986.4837    19.972333    19.754918    20.821354    8215.1028    1659.4715    2631.6349    1668.3448   -463.55761    38.141484   -163.15932   -4827.8336 
41247000    48.248799   -5161.1199   -5068.0681   -5161.1199            0    1826.7824    20.003935    19.828068    20.711474    8214.9863    1523.3263    1653.8243    2303.1967    161.16876    710.28996     474.2198   -4849.2065 
41248000    49.405283   -5159.0909   -5063.8087   -5159.0909            0    1565.9337    19.856755    19.856852    20.828316    8212.4521    2373.7023    1272.3203    1051.7783   -190.93063    295.43106    203.10588   -4876.2565 
41249000    45.463069   -5160.0015   -5072.3222   -5160.0015            0    2063.2634    19.999916    19.815493    20.642346    8180.7311    1736.0387    2796.9929    1656.7585   -20.270517   -410.57232    57.708492   -4826.1592 
41250000    48.533134   -5151.8134   -5058.2132   -5151.8134            0    2729.6503    19.945466    19.838445    20.664523    8176.6836      2152.23     3335.665     2701.056   -241.40937    84.653751   -406.55301   -4732.7064 
Loop time of 381.737 on 64 procs for 250000 steps with 972 atoms

Performance: 113.167 ns/day, 0.212 hours/ns, 654.901 timesteps/s
196.2% CPU use with 32 MPI tasks x 2 OpenMP threads

MPI task timing breakdown:
Section |  min time  |  avg time  |  max time  |%varavg| %total
---------------------------------------------------------------
Pair    | 25.196     | 34.99      | 43.447     |  80.2 |  9.17
Bond    | 0.99065    | 1.2832     | 1.8367     |  15.2 |  0.34
Kspace  | 172.45     | 183.46     | 194.26     |  46.4 | 48.06
Neigh   | 0.088771   | 0.10062    | 0.11205    |   2.6 |  0.03
Comm    | 64.867     | 70.614     | 76.202     |  39.7 | 18.50
Output  | 0.45166    | 0.45205    | 0.45363    |   0.0 |  0.12
Modify  | 73.37      | 76.295     | 80.699     |  18.9 | 19.99
Other   |            | 14.54      |            |       |  3.81

Nlocal:        30.3750 ave          35 max          23 min
Histogram: 2 1 1 1 4 5 4 5 4 5
Nghost:        2662.00 ave        2688 max        2640 min
Histogram: 2 3 3 4 5 5 5 4 0 1
Neighs:        9642.66 ave       12280 max        6435 min
Histogram: 1 2 3 1 4 6 5 7 2 1

Total # of neighbors = 308565
Ave neighs/atom = 317.45370
Ave special neighs/atom = 2.0000000
Neighbor list builds = 254
Dangerous builds = 0

unfix		3
unfix		2
unfix		1

write_data	data.final.${pid}
write_data	data.final.1
System init for write_data ...
PPPM initialization ...
  extracting TIP4P info from pair style
  using 12-bit tables for long-range coulomb (../kspace.cpp:340)
  G vector (1/distance) = 0.37166583
  grid = 24 24 24
  stencil order = 5
  estimated absolute RMS force accuracy = 0.0035767873
  estimated relative force accuracy = 1.0771389e-05
  using double precision FFTW3
  3d grid and FFT values/proc = 3211 432
Last active /omp style is kspace_style pppm/tip4p/omp
WARNING: Not all mixed pair coeffs generated from mixing. Use write_data with 'pair ij' option to store all pair coeffs. (../write_data.cpp:312)

write_restart   restart.lmp.${pid}
write_restart   restart.lmp.1
System init for write_restart ...
PPPM initialization ...
  extracting TIP4P info from pair style
  using 12-bit tables for long-range coulomb (../kspace.cpp:340)
  G vector (1/distance) = 0.37166583
  grid = 24 24 24
  stencil order = 5
  estimated absolute RMS force accuracy = 0.0035767873
  estimated relative force accuracy = 1.0771389e-05
  using double precision FFTW3
  3d grid and FFT values/proc = 3211 432
Last active /omp style is kspace_style pppm/tip4p/omp
Total wall time: 0:06:21
