LAMMPS data file via write_data, version 30 Jul 2021, timestep = 9250000

864 atoms
2 atom types
576 bonds
1 bond types
288 angles
1 angle types

0.028106945646159787 18.17946545434905 xlo xhi
0.3268163411023579 23.30236145891072 ylo yhi
0.1411097105992436 22.072086089402248 zlo zhi

Masses

1 1.00794
2 15.9994

Atoms # full

707 1 1 0.5897 2.5550982242471583 2.329500476613331 3.508216289098782 0 0 0
706 1 2 -1.1794 2.624197054560019 2.3672554788545592 2.5542073290203433 0 0 0
495 1 1 0.5897 8.210172314271649 2.3255034606770124 2.273044488400478 0 0 0
846 1 1 0.5897 7.3626334139071785 2.280892216609861 4.313639746854941 0 0 0
844 1 2 -1.1794 7.4712922035811955 2.4290057604618833 5.253097915885892 0 0 0
708 1 1 0.5897 1.832453283751754 2.826557593815683 2.274216491246765 0 0 0
29 1 1 0.5897 4.156165693319164 2.93680151957347 2.18125153277469 0 0 0
28 1 2 -1.1794 5.026400596593659 3.284776355205954 1.9868350059467204 0 0 0
487 1 2 -1.1794 2.99624659167147 2.0963688894686 5.396634879923971 0 0 0
494 1 1 0.5897 6.6986313446544425 2.3897650006894215 2.219332553252785 0 0 0
30 1 1 0.5897 4.962155832648501 4.218329853261151 2.1884761752750417 0 0 0
493 1 2 -1.1794 7.423374221398035 1.8189818236335697 2.4746337032639247 0 0 0
595 1 2 -1.1794 0.4505993270116221 5.754596129855963 2.9441068510546033 0 0 0
188 1 1 0.5897 2.7440569987209935 0.48819173483946443 2.5024668860585657 0 1 0
597 1 1 0.5897 0.3688394079157247 5.6125587908039405 3.8872226934547864 0 0 0
3 1 1 0.5897 0.1973186445497658 4.235445496275596 2.0002714883197634 0 0 0
136 1 2 -1.1794 5.0993764975227185 5.806699419315125 3.106952527331572 0 0 0
137 1 1 0.5897 5.211977629576755 5.7417937862291115 4.0553443185643845 0 0 0
668 1 1 0.5897 5.24319085476835 3.1067080946069154 0.17015953412580131 0 0 0
356 1 1 0.5897 7.323781210913269 1.1174724441387036 9.943248938075364 0 0 0
355 1 2 -1.1794 7.4790044091819645 1.9944780834927043 10.294092043952153 0 0 0
36 1 1 0.5897 1.7477200553282468 2.31901924854899 10.00331241472683 0 0 0
112 1 2 -1.1794 0.7745766041004779 5.434314895763628 10.25819000578852 0 0 0
35 1 1 0.5897 0.9978377400093175 3.6165717078455852 9.788765080813018 0 0 0
678 1 1 0.5897 5.252709865287431 5.263318280141039 10.062104052802306 0 0 0
674 1 1 0.5897 4.071607263304973 2.4257983755658254 10.12884569087108 0 0 0
675 1 1 0.5897 3.3210621619441283 1.1191445867521712 9.982775210363338 0 0 0
183 1 1 0.5897 0.6893540635730168 4.650617264361853 6.159909771895635 0 0 0
785 1 1 0.5897 0.7264895972252853 2.743473422659617 7.675850051876953 0 0 0
274 1 2 -1.1794 5.465685288541753 3.566554918528099 9.527312971385667 0 0 0
84 1 1 0.5897 5.999802018173523 2.7669339092295777 6.261015363857031 0 0 0
488 1 1 0.5897 2.2245254793807843 2.4651523637237243 5.82637039815173 0 0 0
82 1 2 -1.1794 5.311746384942755 3.1467949350639692 6.8074316373806685 0 0 0
784 1 2 -1.1794 0.6430623647723985 2.9908184296901945 6.754883185941681 0 0 0
83 1 1 0.5897 4.4965658437619 2.8108460407511755 6.434795927800679 0 0 0
276 1 1 0.5897 6.292533901582503 3.1776190737021515 9.81238824170968 0 0 0
419 1 1 0.5897 8.728197043854857 2.953544910752906 6.326694752618486 0 0 0
275 1 1 0.5897 5.463419835624462 3.4555285308589747 8.576517766601642 0 0 0
489 1 1 0.5897 3.0572508283118873 1.2039460079913644 5.737482865560305 0 0 0
34 1 2 -1.1794 1.0201796514927453 2.7004899141941174 9.511983608825785 0 0 0
686 1 1 0.5897 5.483844276094449 4.844106957642393 6.090515040947757 0 0 0
673 1 2 -1.1794 3.3395130190442677 1.9285314741660418 10.49352249153703 0 0 0
176 1 1 0.5897 8.841847735764397 3.0774291570531482 9.940422835277923 0 0 0
685 1 2 -1.1794 5.468902790251455 5.729369825312587 5.726576974225233 0 0 0
181 1 2 -1.1794 0.7170077542169297 5.544632051684839 5.818883379045523 0 0 0
114 1 1 0.5897 1.5987722606967352 5.879734453340452 10.061956260464017 0 0 0
845 1 1 0.5897 7.4494569492782885 1.552941851823038 5.638296213883655 0 0 0
166 1 2 -1.1794 2.9725799011355414 2.1820217242609066 13.205257803773929 0 0 0
167 1 1 0.5897 2.9794003513023797 2.2089149063289515 12.248411876773007 0 0 0
762 1 1 0.5897 5.444780329777824 4.8266144337875385 13.589620476597029 0 0 0
459 1 1 0.5897 4.386157786065867 2.9706666535193107 13.877454075723945 0 0 0
168 1 1 0.5897 2.142414083988242 2.5902824013784733 13.450913352981647 0 0 0
594 1 1 0.5897 8.11257640193438 2.2999448932913893 13.116091541447513 0 0 0
593 1 1 0.5897 7.184337338104978 1.1043147016737365 13.145285048057238 0 0 0
592 1 2 -1.1794 7.2049798275045545 2.0421951507454716 12.954772190058133 0 0 0
458 1 1 0.5897 5.897039469602391 2.977576146144611 13.782762951776393 0 0 0
761 1 1 0.5897 5.265109607416585 5.56719056016974 12.281405344234326 0 0 0
457 1 2 -1.1794 5.1727179891022015 3.2489499458649074 14.34666948323773 0 0 0
468 1 1 0.5897 0.5246712979885362 3.2569257756789036 14.968228053251034 0 0 0
71 1 1 0.5897 5.551607817864448 3.173021831695799 16.15434899772118 0 0 0
466 1 2 -1.1794 0.5773018315417412 3.231850976540891 14.012753009027703 0 0 0
365 1 1 0.5897 0.5051236931375481 4.97746816453551 13.326618329527088 0 0 0
364 1 2 -1.1794 0.524057181093255 5.875078356496036 12.994577391345075 0 0 0
760 1 2 -1.1794 5.291989858120689 5.700080485617764 13.22901150968865 0 0 0
113 1 1 0.5897 0.6352300475556828 5.588129446303296 11.19266730324605 0 0 0
737 1 1 0.5897 2.8335457547418534 0.6111732115240558 13.855944205380581 0 1 0
357 1 1 0.5897 7.201341361366945 1.9397760426141992 11.208543567251601 0 0 0
571 1 2 -1.1794 0.6963735813097913 5.995711660190554 17.802508724943074 0 0 0
599 1 1 0.5897 8.919406100496099 2.7293746845038793 17.280105632599756 0 0 0
72 1 1 0.5897 4.645410549781172 3.131735672790784 17.366408399720697 0 0 0
21 1 1 0.5897 0.984896962133343 4.1800875490180385 20.941834603726612 0 0 0
41 1 1 0.5897 7.221816250089828 2.376291436597373 21.108898403968396 0 0 0
569 1 1 0.5897 2.5152419250047533 2.0700026386876424 20.922849787406406 0 0 0
570 1 1 0.5897 2.882879406436633 1.6704849398091557 19.509583375163523 0 0 0
568 1 2 -1.1794 3.138663042776445 1.542847480596879 20.423148149886067 0 0 0
667 1 2 -1.1794 5.531954146081941 2.950123000471406 21.202017751112365 0 0 0
143 1 1 0.5897 5.16580340231086 4.840633045981158 20.704495407991878 0 0 0
756 1 1 0.5897 6.8359788881648775 2.332165128671919 17.827003864744285 0 0 0
669 1 1 0.5897 4.814945083512582 2.458156755801566 20.801875307240948 0 0 0
289 1 2 -1.1794 3.0066663913746536 2.161189977388548 17.57472757165612 0 0 0
290 1 1 0.5897 3.0778824541388548 1.2970716091556624 17.16909286510362 0 0 0
277 1 2 -1.1794 5.497494724053416 6.057967683045846 17.79842642801622 0 0 0
19 1 2 -1.1794 1.0538821273573324 3.257135318573762 21.18623461213007 0 0 0
291 1 1 0.5897 2.2661605882234404 2.574447902734526 17.13072570511494 0 0 0
42 1 1 0.5897 7.903775880026055 1.038877061569278 20.913204243891087 0 0 0
754 1 2 -1.1794 7.619524500376965 1.801661626543105 17.971386250662825 0 0 0
40 1 2 -1.1794 8.072002863688159 1.981219879149274 20.915773279000703 0 0 0
755 1 1 0.5897 7.696584420606483 1.7415804156570402 18.923647662690314 0 0 0
278 1 1 0.5897 5.509081376953481 5.137041859079112 17.537505656818922 0 0 0
646 1 2 -1.1794 0.19186283092914602 5.835261108653317 20.61852091159968 0 0 0
134 1 1 0.5897 0.7083666988142754 4.197003325125066 17.13045385585189 0 0 0
70 1 2 -1.1794 5.515556285593271 3.4102906467726104 17.081026165516533 0 0 0
142 1 2 -1.1794 5.221948302772425 5.795136477883736 20.658900212095652 0 0 0
144 1 1 0.5897 5.277606802359247 5.987840899748886 19.72288185416091 0 0 0
20 1 1 0.5897 0.5797745030659901 3.192306925174854 22.01528696643807 0 0 -1
133 1 2 -1.1794 0.7980466566484876 3.377754801137017 16.643516224345028 0 0 0
253 1 2 -1.1794 2.7768387626916584 7.182653538751237 2.3245821636756756 0 0 0
123 1 1 0.5897 2.5128139111322025 8.855636065568467 3.005121417119829 0 0 0
121 1 2 -1.1794 2.3995205114083418 9.729125056936756 3.3799538710435506 0 0 0
122 1 1 0.5897 2.5721443819080285 9.613543191659554 4.314382284177122 0 0 0
396 1 1 0.5897 0.47444084988755186 10.745899645320533 0.5585241327623747 0 0 0
773 1 1 0.5897 8.455211362605647 10.709300523688215 2.7466080130423913 0 0 0
415 1 2 -1.1794 7.416104445664664 7.107731333540431 2.2978258046798308 0 0 0
44 1 1 0.5897 0.9572198415959787 10.4893182642099 2.702402169806955 0 0 0
219 1 1 0.5897 3.972016130458327 10.913932627532875 2.3849086760414258 0 0 0
217 1 2 -1.1794 4.775422342205122 11.42727681352722 2.2998744936296887 0 0 0
218 1 1 0.5897 5.479332146922557 10.800928127897981 2.4685150722188904 0 0 0
416 1 1 0.5897 6.627513622244544 6.659101163157379 2.602902269538641 0 0 0
66 1 1 0.5897 6.9149091635984234 9.666432942867091 3.951435764937974 0 0 0
65 1 1 0.5897 6.9619393825805815 8.834325144526044 2.687496359088391 0 0 0
64 1 2 -1.1794 6.794819802626568 9.72235512160728 3.003395212849981 0 0 0
43 1 2 -1.1794 0.1744619806527624 10.803282200502494 2.2496943719601297 0 0 0
254 1 1 0.5897 2.568220309903962 7.221798051310614 1.3911644653399327 0 0 0
417 1 1 0.5897 8.138411454414568 6.613674432789066 2.685661360087735 0 0 0
255 1 1 0.5897 2.067996136246984 6.66577912685993 2.7074818860453105 0 0 0
138 1 1 0.5897 4.328514714050313 6.362875654170207 2.9943034446933687 0 0 0
363 1 1 0.5897 4.945402379212973 11.476367477676858 0.5035809750204544 0 0 1
162 1 1 0.5897 7.487298866571693 6.789253626834467 0.485002582477546 0 0 1
45 1 1 0.5897 0.17935508621572818 11.750119710704588 2.3903897217113976 0 0 0
14 1 1 0.5897 1.0349855233008363 11.543825379593077 10.137574050756655 0 0 0
677 1 1 0.5897 5.924118125303812 6.601882825590168 10.2847786062802 0 0 0
714 1 1 0.5897 7.364977518148373 8.805838331566937 6.221100549867027 0 0 0
15 1 1 0.5897 1.8719033069714235 10.282425123144622 10.116479554449167 0 0 0
794 1 1 0.5897 2.247569042460181 10.078132777623871 6.386210266703397 0 0 0
822 1 1 0.5897 8.71856976067696 10.103929575537812 9.853489876019408 0 0 0
256 1 2 -1.1794 3.4768364267013525 9.502341594311822 10.587884457257863 0 0 0
820 1 2 -1.1794 7.908656068797979 9.712090411255828 10.180149644045253 0 0 0
257 1 1 0.5897 3.2868469365842787 8.748011457093828 10.030020765127263 0 0 0
145 1 2 -1.1794 7.39372166789431 7.165720403574801 6.886163771782135 0 0 0
526 1 2 -1.1794 7.726790723536988 7.0690405608502145 9.645165318784235 0 0 0
650 1 1 0.5897 3.062510331619906 6.986267299754855 8.21476409617215 0 0 0
11 1 1 0.5897 2.1689503322963577 6.6702109285795315 6.105947785200995 0 0 0
580 1 2 -1.1794 5.572897833518677 11.22113033232504 9.789175571281643 0 0 0
581 1 1 0.5897 6.418797090399924 10.816440963892195 9.98132561883837 0 0 0
578 1 1 0.5897 5.96414985877605 10.558017885213696 6.86026475922285 0 0 0
147 1 1 0.5897 7.593740270725562 6.771284870353976 7.73512678840407 0 0 0
649 1 2 -1.1794 3.0390628534872093 7.199353204831976 9.147704827168626 0 0 0
528 1 1 0.5897 8.558621066503534 6.765634397937499 10.008769553416043 0 0 0
552 1 1 0.5897 0.6251209319069717 11.367582881011371 6.621709646358961 0 0 0
577 1 2 -1.1794 5.182319435337031 11.066315847547251 7.076120923076866 0 0 0
258 1 1 0.5897 4.245844200789722 9.908717478137126 10.188225122213636 0 0 0
12 1 1 0.5897 2.9105115097013257 7.985399379652328 5.994656138784806 0 0 0
582 1 1 0.5897 5.483312532975936 11.150231792323716 8.838770330038066 0 0 0
10 1 2 -1.1794 3.026676940506242 7.070064954967237 6.249560187471649 0 0 0
146 1 1 0.5897 6.706653890667819 6.609477915271006 6.519008035291865 0 0 0
527 1 1 0.5897 7.764290129307462 8.022392002084976 9.72301723160692 0 0 0
687 1 1 0.5897 4.611004974828415 6.0754504753861855 5.972404428739623 0 0 0
713 1 1 0.5897 7.934113794141769 10.184867696564975 5.96342652221181 0 0 0
651 1 1 0.5897 3.8006009186477763 6.7510134441239265 9.515508556875274 0 0 0
795 1 1 0.5897 3.7573155770268247 10.182067024564603 6.426537823187306 0 0 0
551 1 1 0.5897 0.6470416974498963 10.674371314581888 7.967476610795525 0 0 0
550 1 2 -1.1794 0.7301648930576263 10.507495453679313 7.028558957119103 0 0 0
13 1 2 -1.1794 1.0237072220883117 10.632697968433845 9.844267017864857 0 0 0
793 1 2 -1.1794 3.0408133778302036 9.742470074708304 5.968692516392687 0 0 0
165 1 1 0.5897 8.770340632295513 6.336259751167618 6.073787917396461 0 0 0
676 1 2 -1.1794 5.126666280007881 6.112236640947143 10.48613372165785 0 0 0
712 1 2 -1.1794 7.283890480556718 9.561650957582769 5.639299705910199 0 0 0
476 1 1 0.5897 6.862870081291239 10.020750879943165 13.141237638065489 0 0 0
332 1 1 0.5897 2.748807907590136 7.7627557897488195 13.633875904571244 0 0 0
797 1 1 0.5897 3.1380612427099384 9.409243762892133 12.331196672582237 0 0 0
796 1 2 -1.1794 2.9915523536389568 9.52027459396126 13.270623163318206 0 0 0
798 1 1 0.5897 2.1963100274471077 10.049842388929894 13.328540316391068 0 0 0
366 1 1 0.5897 1.2664262441448983 6.280951478686863 13.442223287013935 0 0 0
723 1 1 0.5897 5.675461996897018 10.526275092979317 14.92510352287268 0 0 0
331 1 2 -1.1794 2.757163613658569 6.9046013243711455 14.05792654162105 0 0 0
477 1 1 0.5897 7.557010717302582 8.683515503644466 13.289785069766673 0 0 0
225 1 1 0.5897 2.9112072353536522 6.931009219786967 15.889102252745293 0 0 0
826 1 2 -1.1794 7.435568503222907 7.076779894236062 13.76628840655055 0 0 0
827 1 1 0.5897 6.586921589560711 6.776012919225204 13.441423283827183 0 0 0
722 1 1 0.5897 4.647426753666348 10.477702051789544 13.814804892499797 0 0 0
828 1 1 0.5897 7.276621868845711 7.297946661172896 14.683971603350468 0 0 0
259 1 2 -1.1794 0.6572417463288328 10.927152343423769 14.017902239681744 0 0 0
721 1 2 -1.1794 5.557408514106651 10.714448832365738 13.993985755788271 0 0 0
475 1 2 -1.1794 7.669385582363015 9.557338866322882 12.915389742520391 0 0 0
261 1 1 0.5897 0.6105743252036051 10.826008596182097 14.968655731896055 0 0 0
333 1 1 0.5897 3.574139671157618 6.50043703645462 13.765679321787555 0 0 0
851 1 1 0.5897 8.886195523564778 6.143293010067319 13.408960739171127 0 0 0
104 1 1 0.5897 9.056980442882056 10.461340459931467 13.50316298164442 0 0 0
520 1 2 -1.1794 7.606828348480246 7.2925839500390595 16.545130448232833 0 0 0
821 1 1 0.5897 8.056022643975018 9.604515479341 11.119843930820828 0 0 0
689 1 1 0.5897 3.5492315904488767 10.579617789589545 20.459983462170598 0 0 0
4 1 2 -1.1794 2.73396474005639 7.305522527293834 21.54602080360815 0 0 0
626 1 1 0.5897 3.024104375687745 9.80829299987571 18.206818436923257 0 0 0
6 1 1 0.5897 2.732057789411255 8.215099780721575 21.24773309584262 0 0 0
627 1 1 0.5897 1.9919016673654892 10.177286908347769 17.16262729362657 0 0 0
521 1 1 0.5897 6.847737901486151 6.862032730788794 16.938361914595973 0 0 0
394 1 2 -1.1794 0.6866707155860227 10.776785048803978 21.556589488710088 0 0 0
690 1 1 0.5897 2.0996826096722887 10.15381416911824 20.55645164052578 0 0 0
5 1 1 0.5897 3.4792481651504574 6.907098149028578 21.096504665738443 0 0 0
688 1 2 -1.1794 2.9307214239609447 9.921889261829257 20.141974919738445 0 0 0
7 1 2 -1.1794 7.728328184601468 9.753732857658262 18.206836896372508 0 0 0
8 1 1 0.5897 7.526400780647532 9.717725981754908 19.14185290056276 0 0 0
680 1 1 0.5897 4.421515143708266 10.623500748786297 16.92234279072934 0 0 0
140 1 1 0.5897 6.520183949962525 10.05170239763352 21.05372463852634 0 0 0
224 1 1 0.5897 3.1976470279359503 8.013018415282076 16.90856882495021 0 0 0
9 1 1 0.5897 7.027132806779849 10.28539663634476 17.830139578396818 0 0 0
161 1 1 0.5897 6.605789827998599 6.612303625601678 21.19792625506348 0 0 0
160 1 2 -1.1794 7.401117487657357 7.051403925131655 21.499367824307114 0 0 0
223 1 2 -1.1794 3.156134733830615 7.062286708297637 16.805122502500346 0 0 0
625 1 2 -1.1794 2.9003027058063546 9.892257226756715 17.26133434474172 0 0 0
139 1 2 -1.1794 7.410498689880452 9.725466550614463 20.922960882582217 0 0 0
246 1 1 0.5897 9.098780394447116 10.265258937548932 17.10690756049417 0 0 0
141 1 1 0.5897 7.360812190994657 8.796026059074483 21.146530069152377 0 0 0
279 1 1 0.5897 4.732311831092665 6.423565567543069 17.354523840222548 0 0 0
711 1 1 0.5897 8.86844790945461 6.195902963798076 16.982664041773774 0 0 0
361 1 2 -1.1794 5.020694294738346 11.310652631833342 21.494772713853465 0 0 0
287 1 1 0.5897 8.923191045744716 10.527770347419809 21.19132474123461 0 0 0
522 1 1 0.5897 7.6933647957659375 8.114570279194684 17.028005230086386 0 0 0
647 1 1 0.5897 0.8682476528362962 6.378082596734286 21.02360386054317 0 0 0
572 1 1 0.5897 1.4957160262470597 6.4122902184402975 17.48040814082841 0 0 0
462 1 1 0.5897 8.773903477690432 6.363719054145989 20.56278308294872 0 0 0
679 1 2 -1.1794 5.31889295885566 10.95360384771222 16.96628512982874 0 0 0
648 1 1 0.5897 0.17092468659595547 6.119985420154127 19.704834543835673 0 0 0
445 1 2 -1.1794 0.5697805037787708 11.025675510275844 16.922172794968375 0 0 0
557 1 1 0.5897 1.9267352820892145 14.276746661093929 2.1523364655738404 0 0 0
292 1 2 -1.1794 2.5815835994455645 17.515731378901595 2.9058479871074057 0 0 0
293 1 1 0.5897 2.6907891282624368 16.658507463053596 2.494074458372461 0 0 0
558 1 1 0.5897 2.7947465397498195 14.677964699682454 0.9786314377801119 0 0 0
556 1 2 -1.1794 2.723224974987314 14.758720276451436 1.9297809647619115 0 0 0
200 1 1 0.5897 5.185518477967556 13.58705719928696 5.039826504509326 0 0 0
173 1 1 0.5897 4.0997585997602926 14.25080132117717 2.829109450152859 0 0 0
479 1 1 0.5897 7.659521172182206 14.215198190646145 2.1170434883657867 0 0 0
373 1 2 -1.1794 0.7597757628536458 13.344347017325093 2.774795897163149 0 0 0
480 1 1 0.5897 6.167373656833353 14.467094999480477 2.0745351354222796 0 0 0
172 1 2 -1.1794 4.885598425859279 13.884954985907115 3.2350953091315557 0 0 0
478 1 2 -1.1794 6.970582743185269 14.59069602510306 1.5687692610051718 0 0 0
449 1 1 0.5897 7.330927661486927 16.204366827900156 2.324491994366731 0 0 0
174 1 1 0.5897 4.929194417614412 12.986710342969191 2.9071213934532154 0 0 0
374 1 1 0.5897 0.8663209723659441 13.279800487590286 3.723904869898408 0 0 0
307 1 2 -1.1794 7.307605152756455 17.193294074335533 5.550863084552863 0 0 0
448 1 2 -1.1794 7.518502577241466 17.085966723369907 2.6468661141338314 0 0 0
308 1 1 0.5897 7.395840543009402 17.11758539648046 4.600695039810757 0 0 0
294 1 1 0.5897 2.671250835415377 17.344791045316477 3.843428281042207 0 0 0
655 1 2 -1.1794 0.6123478109258681 12.97567497149769 5.772023999884553 0 0 0
811 1 2 -1.1794 2.675535202577866 14.806991520424553 9.589712757277853 0 0 0
812 1 1 0.5897 3.543605910305424 14.486865090270735 9.83518226387738 0 0 0
813 1 1 0.5897 2.067624791783122 14.236624424314709 10.060236617788824 0 0 0
17 1 1 0.5897 2.624309971655042 14.713298764257356 7.661800619471649 0 0 0
238 1 2 -1.1794 3.004023959524692 17.32653647403252 5.6863561934519735 0 0 0
186 1 1 0.5897 7.521769027477068 16.583771603240645 10.62927957968767 0 0 0
518 1 1 0.5897 7.630810083873315 15.599114228341945 6.380181583597634 0 0 0
16 1 2 -1.1794 2.8087354297016422 14.714102931878037 6.7224814080867805 0 0 0
517 1 2 -1.1794 7.553811182002216 14.736449783955178 6.78785464055825 0 0 0
201 1 1 0.5897 6.1058876099557295 14.08466738521578 6.134032843652286 0 0 0
18 1 1 0.5897 3.6483007416814055 14.26141444937947 6.642372231676246 0 0 0
384 1 1 0.5897 2.800770721616908 16.39943652656926 10.44769216640587 0 0 0
454 1 2 -1.1794 4.961622889728433 13.554508848622774 10.884901851920867 0 0 0
456 1 1 0.5897 5.276684600399253 12.71130310598958 10.55923783310494 0 0 0
376 1 2 -1.1794 7.143028736308929 14.9079924097629 9.757933666755235 0 0 0
378 1 1 0.5897 7.278505783348247 14.720539521501005 8.829046353043212 0 0 0
377 1 1 0.5897 6.3833263708371355 14.378943906587367 10.001206906853215 0 0 0
519 1 1 0.5897 8.294374347155857 14.239641079528253 6.440018536911595 0 0 0
239 1 1 0.5897 3.2331561526927692 16.42978769889538 5.930605348627893 0 0 0
766 1 2 -1.1794 0.6153645126418429 13.168466184141263 10.665215522696295 0 0 0
199 1 2 -1.1794 5.307988669854997 13.576148731405965 5.989142068620685 0 0 0
656 1 1 0.5897 1.3698966912794748 13.38223406303939 6.192805235209546 0 0 0
184 1 2 -1.1794 7.677489767122893 17.488449492553077 10.90060274805215 0 0 0
59 1 1 0.5897 8.787861186163928 14.134474013440144 10.039606458518488 0 0 0
382 1 2 -1.1794 2.8885524215270446 17.304744023095406 10.746106976032436 0 0 0
579 1 1 0.5897 5.34507108293928 11.929878018061391 6.696522545107214 0 0 0
232 1 2 -1.1794 3.1824288944548025 14.481369668006575 14.113547031594857 0 0 0
234 1 1 0.5897 2.990385415756146 14.47214599366284 15.051285118105586 0 0 0
606 1 1 0.5897 3.3233085484748366 16.445677071176615 13.940448995997302 0 0 0
296 1 1 0.5897 7.883689495921101 14.736125943383374 14.822228917577682 0 0 0
639 1 1 0.5897 1.5926064599789336 13.944293825129071 13.473131856485706 0 0 0
233 1 1 0.5897 4.057825358827119 14.10050662872971 14.044125903916393 0 0 0
427 1 2 -1.1794 5.449648052994978 13.40291564121858 13.59034403443264 0 0 0
297 1 1 0.5897 8.527600770492946 14.721182756433361 13.452110882554988 0 0 0
429 1 1 0.5897 6.323349631788845 13.792108180097774 13.627309425867518 0 0 0
767 1 1 0.5897 0.5301824882509977 13.354280798787126 11.600388852784269 0 0 0
295 1 2 -1.1794 7.695584966668598 14.88607169834866 13.89569979114488 0 0 0
270 1 1 0.5897 7.625934614111302 16.65049773140849 13.824723618336762 0 0 0
638 1 1 0.5897 0.6839855219618942 12.73333371455489 13.477408271016925 0 0 0
428 1 1 0.5897 5.601591558595772 12.46251699607726 13.684548378866737 0 0 0
637 1 2 -1.1794 0.7110054834914438 13.658603285501867 13.233550918388444 0 0 0
605 1 1 0.5897 3.089822157639427 17.294535195595117 12.708768074970067 0 0 0
269 1 1 0.5897 7.788816707521607 17.534692680850103 12.60656776166619 0 0 0
604 1 2 -1.1794 3.304532735774466 17.3542627720772 13.63970513775733 0 0 0
455 1 1 0.5897 5.030503742872839 13.48494216020091 11.837138145810389 0 0 0
49 1 2 -1.1794 7.899373367429809 14.71785140695183 16.69096353796067 0 0 0
683 1 1 0.5897 5.858685858026474 14.141402189246126 20.544508409130152 0 0 0
316 1 2 -1.1794 7.6203434969325565 14.552297675974938 20.761050763045546 0 0 0
50 1 1 0.5897 7.920853161255251 15.558829239163732 17.147695670600996 0 0 0
51 1 1 0.5897 8.681168786994245 14.258330151244643 16.997310669022703 0 0 0
53 1 1 0.5897 0.8483853409530457 13.567066586707199 18.79053735386318 0 0 0
666 1 1 0.5897 2.881248672042084 15.556839268214445 20.737120452456672 0 0 0
664 1 2 -1.1794 2.9135878365098136 14.667390510954109 21.08946090804421 0 0 0
665 1 1 0.5897 2.044470606632207 14.307442496569031 20.91262044061 0 0 0
157 1 2 -1.1794 7.982128820105913 17.499004526072554 20.43251848857598 0 0 0
825 1 1 0.5897 2.091176009345358 14.610004044160922 17.212744724065693 0 0 0
451 1 2 -1.1794 0.5474134519234477 13.275387916863496 20.59923501814297 0 0 0
52 1 2 -1.1794 0.8327231186630895 13.52536674050182 17.834318522802455 0 0 0
126 1 1 0.5897 6.002537542470809 14.260225114014336 17.127061078708444 0 0 0
318 1 1 0.5897 7.633884448336387 15.509256851702757 20.742138804021266 0 0 0
684 1 1 0.5897 4.352960890114254 14.01174680688386 20.45608264197844 0 0 0
452 1 1 0.5897 0.7379005287172614 12.361367591786912 20.810409952686733 0 0 0
124 1 2 -1.1794 5.214377996343595 13.731114566652352 17.249771331338295 0 0 0
125 1 1 0.5897 5.179777367162641 13.567042964054219 18.19221528931741 0 0 0
682 1 2 -1.1794 5.166193880024435 13.63474199553534 20.120229972603504 0 0 0
610 1 2 -1.1794 7.579931375779507 17.327051574000006 17.538212493914727 0 0 0
715 1 2 -1.1794 2.84317854945352 17.32982067352482 20.358366596881638 0 0 0
823 1 2 -1.1794 2.7969489063249116 15.075713136309265 16.764138294004887 0 0 0
584 1 1 0.5897 2.789129543369651 16.876457625893984 17.337794843507965 0 0 0
824 1 1 0.5897 3.579434637530278 14.553485062566425 16.941059129660722 0 0 0
362 1 1 0.5897 5.191821348379771 12.171302505161423 21.112267424725843 0 0 0
117 1 1 0.5897 9.070771706099935 13.664802234339344 20.419437905188985 0 0 0
681 1 1 0.5897 5.231981652789853 11.900520679688006 16.85625422844967 0 0 0
716 1 1 0.5897 2.8862994115343015 17.458819327624266 19.41083331200793 0 0 0
446 1 1 0.5897 0.5079229394589667 11.905524670173985 17.29414362130828 0 0 0
317 1 1 0.5897 7.54057135057323 14.331699445978652 21.689110654954423 0 0 -1
696 1 1 0.5897 1.1832128364925412 21.777634440093845 2.9653734746931772 0 0 0
187 1 2 -1.1794 2.7355482077066107 22.508701410449813 2.438097197397485 0 0 0
343 1 2 -1.1794 0.4592062180042951 18.75380970469457 1.9991701574370615 0 0 0
345 1 1 0.5897 0.5567328457946397 18.656919948778864 1.0518426635283942 0 0 0
818 1 1 0.5897 7.971917520057794 21.790315739542244 2.4943395719738155 0 0 0
266 1 1 0.5897 4.133235837553008 21.444274780785683 2.7685343905428446 0 0 0
226 1 2 -1.1794 5.0464472716246975 18.46796704743153 2.090034505808064 0 0 0
695 1 1 0.5897 0.43289401130812155 20.471113423906218 2.8169768580864427 0 0 0
228 1 1 0.5897 5.157941468523367 19.33550836110079 2.478956328352949 0 0 0
450 1 1 0.5897 6.704199565981026 17.570009326569828 2.5096848606403657 0 0 0
694 1 2 -1.1794 0.33718302447903836 21.36632433692572 3.142160446944699 0 0 0
817 1 2 -1.1794 7.234091908804844 22.03274351996992 1.934806489706672 0 0 0
189 1 1 0.5897 2.788871564365352 22.330973605155044 1.4990041995126746 0 0 0
265 1 2 -1.1794 4.945939517866683 21.049177082775007 3.0841645653874328 0 0 0
267 1 1 0.5897 5.636980613163017 21.507086872222775 2.605606143643227 0 0 0
344 1 1 0.5897 1.2897559240537515 18.442541937739907 2.359034607937678 0 0 0
249 1 1 0.5897 5.1839716694034355 20.959170630230144 4.884400785270559 0 0 0
227 1 1 0.5897 4.202353071513986 18.1626494973955 2.4224580941097993 0 0 0
413 1 1 0.5897 0.5971187168765939 21.221107909591446 5.0337597242999 0 0 0
602 1 1 0.5897 5.362022080997278 18.370401065670332 0.2867062490540936 0 0 0
321 1 1 0.5897 8.9619251457116 18.261457848769286 2.079170165543317 0 0 0
819 1 1 0.5897 7.171256258152827 22.984199792086052 2.019375563469666 0 -1 0
498 1 1 0.5897 7.489222142655202 22.22335655933751 0.14627104334087374 0 0 0
39 1 1 0.5897 3.493754445547865 21.952315029198676 9.48323070240327 0 0 0
700 1 2 -1.1794 2.9569693201445992 22.559350364482615 6.406210823720172 0 0 0
554 1 1 0.5897 5.6632622848931735 21.26208712797972 9.389854060731317 0 0 0
33 1 1 0.5897 6.454506206556496 22.076757281714332 6.078509300811259 0 0 0
387 1 1 0.5897 5.113735274159304 19.534904615693563 6.630568820674179 0 0 0
383 1 1 0.5897 3.627083762011912 17.65182230314474 10.245757068253951 0 0 0
385 1 2 -1.1794 5.180746210757474 18.65616476447739 7.004266647636425 0 0 0
32 1 1 0.5897 7.948651503253116 22.318251255146187 6.10927235607794 0 0 0
87 1 1 0.5897 7.806491916644203 22.067802538365033 9.521465767179542 0 0 0
38 1 1 0.5897 2.0582091072251205 22.430719164653784 9.52900797172286 0 0 0
31 1 2 -1.1794 7.1138018725163885 22.705125101465608 6.37301660081506 0 0 0
37 1 2 -1.1794 2.9200238706103865 22.655190020567577 9.178180524954632 0 0 0
86 1 1 0.5897 7.267507458757592 22.714300074601983 8.263051196448425 0 0 0
341 1 1 0.5897 1.363562928827192 18.038422665109266 6.2114170958459 0 0 0
340 1 2 -1.1794 0.5585580347340314 18.413710008954943 6.56825609394081 0 0 0
386 1 1 0.5897 5.746553911898331 18.17955697485598 6.39682926538593 0 0 0
553 1 2 -1.1794 4.9648642324950885 20.886303065887205 9.92584804011607 0 0 0
555 1 1 0.5897 5.133841610493783 19.944167123324256 9.914114699259015 0 0 0
405 1 1 0.5897 0.8784635912913006 19.62668792369925 9.591350868211132 0 0 0
701 1 1 0.5897 3.084825278023792 22.530244336773208 7.354431110964655 0 0 0
412 1 2 -1.1794 0.4402425314873406 21.113619662926297 5.971927709540386 0 0 0
248 1 1 0.5897 4.417921727484016 21.683866804460283 5.970672984709649 0 0 0
702 1 1 0.5897 2.110308535941447 22.13572315662594 6.2651074292698 0 0 0
102 1 1 0.5897 5.199795160999614 18.255269368603503 8.816096846142482 0 0 0
404 1 1 0.5897 1.686742000995494 18.3640895968735 9.80233950697038 0 0 0
100 1 2 -1.1794 5.159753060046833 18.311752364427576 9.770839209885015 0 0 0
342 1 1 0.5897 0.7577175904632736 18.5764353543444 7.490314699793822 0 0 0
247 1 2 -1.1794 5.1521239632924685 21.085407668561892 5.832752474907174 0 0 0
414 1 1 0.5897 0.5686072333847791 20.178481687732766 6.131139120159392 0 0 0
85 1 2 -1.1794 7.046417660247285 22.536965666843486 9.177371083994574 0 0 0
101 1 1 0.5897 6.033199349614749 18.05152888599751 10.063502391043833 0 0 0
403 1 2 -1.1794 1.0868996482828408 18.784769423048644 9.186322917572197 0 0 0
309 1 1 0.5897 8.092020348357334 17.66681818838944 5.827773563091194 0 0 0
185 1 1 0.5897 8.39981482886693 17.784207555111433 10.346523951354731 0 0 0
94 1 2 -1.1794 0.6832694441650968 21.456853461462234 10.060441706672835 0 0 0
96 1 1 0.5897 0.8537842629697896 21.20272730907997 10.967446397277623 0 0 0
240 1 1 0.5897 3.688132044939209 17.865671291875977 6.083307012434263 0 0 0
787 1 2 -1.1794 7.531476297649922 22.404003619658837 13.899694743787187 0 0 0
381 1 1 0.5897 1.4899953000951447 21.645631744085257 13.245934423734404 0 0 0
764 1 1 0.5897 4.650005341589924 18.561225141944373 13.717070470507588 0 0 0
503 1 1 0.5897 1.681841497776641 18.134977006330992 13.691116700071188 0 0 0
738 1 1 0.5897 3.532016764212643 22.25961048527835 13.648707296309277 0 0 0
502 1 2 -1.1794 0.8325793018392489 18.576381167895466 13.702714733151533 0 0 0
504 1 1 0.5897 0.6472440487051564 18.71578132758237 14.631442157969403 0 0 0
736 1 2 -1.1794 2.7867274179574713 22.661107716808413 14.095476465656624 0 0 0
88 1 2 -1.1794 5.110056120073587 21.616906174323027 12.570764086012462 0 0 0
765 1 1 0.5897 6.147426274411265 18.647708147756113 13.512039358142987 0 0 0
763 1 2 -1.1794 5.38170887030801 19.17816289386915 13.73232888057689 0 0 0
89 1 1 0.5897 5.128472236633444 21.473208791524872 11.624543616431126 0 0 0
380 1 1 0.5897 0.8573015135343024 20.280354137536165 13.079342297096868 0 0 0
350 1 1 0.5897 2.8320081381303797 22.505626209735222 15.870866377850525 0 0 0
789 1 1 0.5897 6.652398155195474 22.26292501643948 13.548256674080864 0 0 0
90 1 1 0.5897 5.354360677737812 20.771172164766107 12.946748911726345 0 0 0
474 1 1 0.5897 5.385589821239591 18.828419880550722 15.570558353988558 0 0 0
379 1 2 -1.1794 0.7737335026896107 21.192459089553566 12.801144068305064 0 0 0