LAMMPS data file via write_data, version 30 Jul 2021, timestep = 1000000

972 atoms
2 atom types
648 bonds
1 bond types
324 angles
1 angle types

0.06511439668970986 19.934886603309998 xlo xhi
0.0010834275856677067 19.998917572414264 ylo yhi
0.21304896324467748 20.486949036759306 zlo zhi

Masses

1 1.008
2 15.999

Pair Coeffs # lj/cut/tip4p/long/omp

1 0 0
2 0.21084 3.1668

Bond Coeffs # harmonic/omp

1 450 0.9572

Angle Coeffs # harmonic/omp

1 55 104.52

Atoms # full

3 1 1 0.5897 3.3930899056326207 2.531304646183854 0.44980346583399355 0 0 0
1 1 2 -1.1794 2.456479670808563 2.6859891619043528 0.3269260092171994 0 0 0
23 8 1 0.5897 2.9195656395291523 0.7887262491445679 4.470938736354701 0 0 0
10 4 2 -1.1794 1.349301306965958 4.2303166580289995 3.7021845087284424 0 0 0
11 4 1 0.5897 1.2527034419250667 3.3781308169868525 3.276977619896092 0 0 0
12 4 1 0.5897 2.2945400370576414 4.342200785129292 3.8034948190043654 0 0 0
272 91 1 0.5897 7.399426089104092 0.4224028142872408 2.1571810875025883 0 1 0
31 11 2 -1.1794 0.6709692788331864 1.91922859470912 2.500252546823407 0 0 0
33 11 1 0.5897 1.3224293910305212 2.058460539581688 1.812921469340949 0 0 0
16 6 2 -1.1794 4.368789424239859 4.022623098796611 3.3594167665048467 0 0 0
17 6 1 0.5897 4.55397866461642 4.2525443336203885 2.4489190162650276 0 0 0
53 18 1 0.5897 9.791609293923418 3.95151036708788 3.4385902285455536 0 0 0
4 2 2 -1.1794 4.3779208782327 1.3655888483741057 3.3706644307442417 0 0 0
18 6 1 0.5897 4.29742172291255 3.068005895374595 3.3562080562090895 0 0 0
68 23 1 0.5897 8.180462846199239 2.5529354325385 1.428476012507049 0 0 0
22 8 2 -1.1794 2.2738851320089135 0.5645888963251097 5.141080962982532 0 0 0
67 23 2 -1.1794 7.485527774105712 2.3109291198850253 2.0406325432912022 0 0 0
47 16 1 0.5897 7.675753822333354 3.490311751363604 3.300114011091938 0 0 0
69 23 1 0.5897 6.675097576170626 2.546723850940107 1.5891447587582608 0 0 0
46 16 2 -1.1794 7.983308307885307 4.288013020560189 3.7306577521747686 0 0 0
6 2 1 0.5897 5.038093411667198 1.1553946427860435 4.03113540872556 0 0 0
48 16 1 0.5897 7.342342330394309 4.449414011196733 4.422977366433551 0 0 0
5 2 1 0.5897 4.513990467382755 0.7165333584880633 2.680371841425306 0 0 0
9 3 1 0.5897 5.271372039757 4.582601373548972 4.851457084979665 0 0 0
34 12 2 -1.1794 5.207092802865399 2.5962153477945606 0.390326809588717 0 0 0
236 79 1 0.5897 1.1134497635122385 0.09336444239195231 2.490224427333866 0 1 0
2 1 1 0.5897 2.3659558379761103 3.6387907675897995 0.3466018526103861 0 0 0
58 20 2 -1.1794 8.542311697591316 0.781864186891238 5.1977626861212185 0 0 0
41 14 1 0.5897 9.997846171369813 0.8161351003657045 4.275961169077437 0 0 0
341 114 1 0.5897 3.7571729022278024 3.1458950705771134 10.19701872025786 0 0 0
325 109 2 -1.1794 2.8721263289149936 2.667997933075015 6.628200655833161 0 0 0
326 109 1 0.5897 2.6243695729993695 1.9530511737505027 6.041897366777219 0 0 0
327 109 1 0.5897 3.811173036044317 2.5478561166587026 6.769683982634245 0 0 0
8 3 1 0.5897 5.921582667777125 4.11389374980803 6.135752260079099 0 0 0
355 119 2 -1.1794 1.2123559225299647 2.24218615896377 8.814217521203766 0 0 0
356 119 1 0.5897 1.8653074446008056 2.472636796923842 8.153325054682504 0 0 0
328 110 2 -1.1794 4.425453002487403 1.466859650997613 10.177812087418674 0 0 0
360 120 1 0.5897 5.8119718888543686 1.940879846248127 6.786132263358432 0 0 0
59 20 1 0.5897 8.900662577687537 1.4891678453487946 5.734064116162993 0 0 0
361 121 2 -1.1794 9.165617118846582 2.9026314221415443 7.010204469604344 0 0 0
359 120 1 0.5897 5.87722449010355 2.4182219210555993 8.221304920342035 0 0 0
358 120 2 -1.1794 5.562900498356295 2.670765997683482 7.3531875712289905 0 0 0
362 121 1 0.5897 9.228630963333162 3.832492389464338 6.791664170984482 0 0 0
393 131 1 0.5897 7.747341067149688 1.2740397032627304 9.123729135804016 0 0 0
392 131 1 0.5897 8.328684075731907 2.5467598972787195 8.545486642052703 0 0 0
27 9 1 0.5897 2.862564497468678 4.636554848115305 6.564133646500934 0 0 0
391 131 2 -1.1794 7.714294067110286 2.227176259615872 9.206251977336619 0 0 0
330 110 1 0.5897 4.676460352904494 0.7233343920306812 9.629652131286699 0 0 0
342 114 1 0.5897 3.9688732959780317 4.565448047768023 9.71501887334585 0 0 0
7 3 2 -1.1794 5.847463539851068 4.873735357585796 5.558277699935621 0 0 0
357 119 1 0.5897 0.3717677835382323 2.4313067828573476 8.397285388576075 0 0 0
335 112 1 0.5897 0.985134806188703 3.5074606379216666 9.933936733893846 0 0 0
29 10 1 0.5897 6.833392533316231 0.7610015782764877 5.4167850963306075 0 0 0
28 10 2 -1.1794 5.957970099438618 0.6818459635513662 5.795763441401264 0 0 0
561 187 1 0.5897 1.0374599100536512 0.4434328452467063 8.542427481811554 0 1 0
102 34 1 0.5897 0.2894426231006692 0.7463509530059543 5.6587773114346485 1 0 0
334 112 2 -1.1794 0.8605321396545165 4.364246063723333 10.342304586390394 0 0 0
370 124 2 -1.1794 8.04497555548993 4.233089977100248 10.973420384082022 0 0 0
352 118 2 -1.1794 5.975474555713979 1.350877880032455 12.491916058203415 0 0 0
386 129 1 0.5897 8.8038021778317 4.521044110989689 14.235610584269484 0 0 0
649 217 2 -1.1794 2.3502595888467 2.3738993591005717 13.492332182943798 0 0 0
650 217 1 0.5897 2.257521236941501 1.797490146225975 12.733768881543352 0 0 0
372 124 1 0.5897 7.203809536853686 4.3836260226960055 11.40471851270924 0 0 0
346 116 2 -1.1794 1.859548476426798 0.5171573586363993 11.546588974584047 0 0 0
384 128 1 0.5897 9.347462614608347 1.2630039200200593 11.13462606337348 0 0 0
347 116 1 0.5897 0.9552658251160605 0.7839683661195155 11.381226420033808 0 0 0
683 228 1 0.5897 4.183428322560081 2.6671913142518973 13.912139098384632 0 0 0
651 217 1 0.5897 1.6100325911316933 2.1494187441335155 14.056171147810474 0 0 0
383 128 1 0.5897 8.868143863989523 1.786145481108304 12.471951033330557 0 0 0
382 128 2 -1.1794 8.753273124564682 1.0612367093556163 11.857434715078975 0 0 0
340 114 2 -1.1794 3.647825696985092 4.059413131859369 10.461420388675613 0 0 0
354 118 1 0.5897 5.7710865245773295 1.9854390606807972 13.178825423067327 0 0 0
684 228 1 0.5897 5.049010650203607 3.9093138028218855 13.911589765536911 0 0 0
350 117 1 0.5897 2.389285091862894 4.170526525872424 13.26788300866568 0 0 0
685 229 2 -1.1794 9.47427005425488 2.5969126448918423 13.995907520429999 0 0 0
329 110 1 0.5897 4.904166260706477 1.3341461299470232 10.995998054345666 0 0 0
686 229 1 0.5897 8.943687476087433 2.3180340997550832 14.742184225451727 0 0 0
336 112 1 0.5897 1.6803626645609735 4.529708111211484 10.807866769058373 0 0 0
371 124 1 0.5897 7.918629105928922 3.4247268058728575 10.476544755650425 0 0 0
353 118 1 0.5897 6.931518769361736 1.3475512388983635 12.445048403995377 0 0 0
682 228 2 -1.1794 4.9669536994164405 3.0439821278845196 14.31259345618421 0 0 0
348 116 1 0.5897 2.3702128748311138 0.9718142994184652 10.876711600155405 0 0 0
332 111 1 0.5897 4.809349947959206 4.774367673250115 11.782381740259712 0 0 0
331 111 2 -1.1794 5.435782862239667 4.880919844528367 12.498212042700743 0 0 0
377 126 1 0.5897 9.915866362086934 4.373862613583573 10.750238398900438 0 0 0
405 135 1 0.5897 0.0942932551296991 4.452606846900448 12.018196142705058 1 0 0
679 227 2 -1.1794 0.8990481327434905 1.7305535406919674 15.728228633669916 0 0 0
672 224 1 0.5897 1.0674111324574682 0.8872999731278739 18.52794831109267 0 0 0
652 218 2 -1.1794 4.3123652307478855 1.0656928729987611 16.851828808440487 0 0 0
653 218 1 0.5897 3.53840097260945 0.9105720577387072 17.393263072557872 0 0 0
38 13 1 0.5897 8.930672144630813 2.2309642799769134 19.4779424467339 0 0 -1
658 220 2 -1.1794 1.1293368337477816 3.8676094640467427 17.501846859155762 0 0 0
664 222 2 -1.1794 3.721007643067742 3.9454895549563727 17.4264079993749 0 0 0
717 239 1 0.5897 6.43693125535584 2.135780541673916 15.867864633907432 0 0 0
666 222 1 0.5897 3.933732595247255 3.089453578778173 17.054577702054804 0 0 0
670 224 2 -1.1794 2.017050858672532 0.9920430376151126 18.469010206253262 0 0 0
671 224 1 0.5897 2.201861451080918 1.7892591309482326 18.96561699027041 0 0 0
665 222 1 0.5897 2.76424379403424 3.9744487727253057 17.43010614382132 0 0 0
681 227 1 0.5897 1.1981923677855821 2.263459015603838 16.464961584716082 0 0 0
710 237 1 0.5897 9.234703659651117 4.762928839788462 19.960270455674554 0 0 0
676 226 2 -1.1794 6.036700706585526 0.6764524202318155 18.800994088243776 0 0 0
660 220 1 0.5897 1.0134290022250005 4.53595116637691 16.82643921256962 0 0 0
716 239 1 0.5897 7.3180569109651925 0.9139742301479168 15.716161251889027 0 0 0
655 219 2 -1.1794 5.870116194073037 4.698124945034102 19.202571692066 0 0 0
659 220 1 0.5897 0.47597588103288097 4.083171501251168 18.167328736445636 0 0 0
706 236 2 -1.1794 8.886822686856817 0.3663238033094365 18.708806141642427 0 0 0
657 219 1 0.5897 6.58225350874182 4.48002129052032 18.601294613031772 0 0 0
715 239 2 -1.1794 7.3534714553106415 1.8661417546206318 15.808513454813731 0 0 0
694 232 2 -1.1794 7.9053806783698235 4.163822884661329 17.520004036067895 0 0 0
695 232 1 0.5897 7.741624311753522 3.3980660493349117 16.96943290169052 0 0 0
677 226 1 0.5897 5.431649855244759 0.8124204241991133 18.071859068101976 0 0 0
654 218 1 0.5897 4.372147675968445 0.2919574436060506 16.291391294043777 0 0 0
708 236 1 0.5897 7.935553361221036 0.31136797615967526 18.61758039422498 0 0 0
702 234 1 0.5897 9.89857799258142 3.8261055423964256 17.78657329420343 0 0 0
656 219 1 0.5897 5.078530844358837 4.642674118795284 18.667258690437677 0 0 0
696 232 1 0.5897 7.674766072317574 4.910629113692135 16.967366305440493 0 0 0
36 12 1 0.5897 5.505794170309164 3.431829074538654 20.305212280486842 0 0 -1
35 12 1 0.5897 5.562424369208991 1.9376717618966566 20.067267218126908 0 0 -1
37 13 2 -1.1794 9.279423241438785 2.7931095521388274 20.16977918205888 0 0 -1
689 230 1 0.5897 9.936585337172946 0.8812061751216907 17.527878172149315 0 0 0
130 44 2 -1.1794 1.9954823378392903 7.769248435449043 4.963728344460719 0 0 0
56 19 1 0.5897 6.691218095829476 6.258743872473706 1.6479870569553847 0 0 0
143 48 1 0.5897 5.992470640722707 9.275713101574912 1.426932399424522 0 0 0
674 225 1 0.5897 1.808833065100464 5.745355877897799 1.2181088080958122 0 0 1
166 56 2 -1.1794 8.61995621229878 7.745773225820116 4.974371182206588 0 0 0
139 47 2 -1.1794 0.622683966936989 8.950551593839936 2.301282837013373 0 0 0
126 42 1 0.5897 4.5719047789792375 9.772736135629362 3.3241244946824158 0 0 0
141 47 1 0.5897 0.5870414681958152 8.031687358330014 2.5673948941691536 0 0 0
112 38 2 -1.1794 4.305642397211653 8.031903875939582 3.178245263437273 0 0 0
114 38 1 0.5897 3.4365815540085225 7.817087549044237 3.517098111460665 0 0 0
113 38 1 0.5897 4.886895573031543 7.940823762695336 3.933263380428811 0 0 0
110 37 1 0.5897 2.0166512585661267 9.228557830775861 1.1330477830677106 0 0 0
15 5 1 0.5897 4.572368325997404 6.649897585418194 2.007851457007755 0 0 0
14 5 1 0.5897 4.1883332254504655 5.6954911141000055 0.8971889978775123 0 0 0
132 44 1 0.5897 1.0385229934997113 7.790587116359522 4.968546980446686 0 0 0
55 19 2 -1.1794 7.6037951386195095 6.430307387119409 1.880412695984866 0 0 0
19 7 2 -1.1794 0.3810657572969432 6.228760519305793 2.2336438697309626 0 0 0
13 5 2 -1.1794 4.943936791786322 6.029626511995741 1.3805731346510801 0 0 0
177 59 1 0.5897 8.159315696972175 9.614596930615303 1.7663447108879362 0 0 0
20 7 1 0.5897 0.6640516046596658 5.509409113970411 2.798188612306155 0 0 0
175 59 2 -1.1794 7.605131387546107 9.156892728001536 2.398496500469014 0 0 0
176 59 1 0.5897 7.713786457156259 8.229840102601784 2.186010792187889 0 0 0
57 19 1 0.5897 7.795993635095383 5.802748204813924 2.5771930386362807 0 0 0
140 47 1 0.5897 1.0241192206027274 9.400392773159368 3.0447453960479245 0 0 0
711 237 1 0.5897 8.528861735309523 5.8458534086054526 0.47445517802363646 0 0 1
142 48 2 -1.1794 5.4121479427995425 9.35292818567755 0.6696538221058095 0 0 0
111 37 1 0.5897 3.4695313851069653 8.848037011543488 0.9426086616001811 0 0 0
673 225 2 -1.1794 2.2645256290041043 5.336849800433696 0.48210766950736156 0 0 1
149 50 1 0.5897 9.801238057415686 7.665828632793408 3.750705199473634 0 0 0
138 46 1 0.5897 6.982196665901752 7.643320862697074 5.156582068767504 0 0 0
109 37 2 -1.1794 2.6640196097044444 9.026925666625127 0.4574382683721698 0 0 0
131 44 1 0.5897 2.2171748024211855 6.881915495277178 5.246344877790578 0 0 0
437 146 1 0.5897 4.43123287612617 7.286987948791299 9.623041422618236 0 0 0
339 113 1 0.5897 4.268220957555885 5.856448875705425 7.717613863805755 0 0 0
438 146 1 0.5897 4.241834235464613 8.768749824313685 9.869695515145473 0 0 0
500 167 1 0.5897 7.310341226542881 9.170913361049074 10.081602617518303 0 0 0
467 156 1 0.5897 5.61800374005064 8.415001423096513 6.881412973405999 0 0 0
464 155 1 0.5897 1.1782747035600567 8.817290573890835 8.241320726804853 0 0 0
137 46 1 0.5897 5.951121598085424 6.667532651553668 5.682720955515502 0 0 0
345 115 1 0.5897 0.718234361460142 6.935193833750766 8.783335551241107 0 0 0
344 115 1 0.5897 0.700687511703016 5.4571559424760885 9.111032806420434 0 0 0
463 155 2 -1.1794 0.45477635443407305 8.878401776497554 8.865032121522395 0 0 0
63 21 1 0.5897 9.989182990198303 5.813516125108551 6.777533833163212 0 0 0
343 115 2 -1.1794 0.5949345313320765 6.073072859134617 8.385958577167921 0 0 0
380 127 1 0.5897 7.503371188475878 6.8138228630720175 8.972148484591935 0 0 0
337 113 2 -1.1794 4.7956887933650085 5.809434526372384 8.514967913116747 0 0 0
62 21 1 0.5897 8.49064474948008 5.838315494393703 6.991180139462795 0 0 0
433 145 2 -1.1794 2.6076979302273373 9.163060820531813 7.17971820593437 0 0 0
466 156 2 -1.1794 5.417792118509651 8.973951526169794 7.632247573227448 0 0 0
136 46 2 -1.1794 6.075724680468571 7.590037437465571 5.459447901958906 0 0 0
26 9 1 0.5897 1.8957821655289557 5.700719972021475 7.038399008474785 0 0 0
470 157 1 0.5897 8.539156152054952 9.223507392746885 8.194733814694558 0 0 0
167 56 1 0.5897 8.788784252042348 6.981676498673713 5.525716282076183 0 0 0
468 156 1 0.5897 4.464191575441313 9.056523200010064 7.622471082470595 0 0 0
435 145 1 0.5897 2.4504450871911994 8.670294455270746 6.374298381560725 0 0 0
501 167 1 0.5897 6.584196683309799 8.643798359181462 8.862284432150012 0 0 0
379 127 2 -1.1794 7.636082431499325 5.918627042799072 8.660085401643807 0 0 0
499 167 2 -1.1794 7.374640916357278 8.515716910574426 9.386709037054317 0 0 0
338 113 1 0.5897 5.661332106277951 5.532941597484736 8.214160941024442 0 0 0
168 56 1 0.5897 8.761056904226683 8.495224990690945 5.552934816773455 0 0 0
469 157 2 -1.1794 8.98538603108299 9.540517017013437 7.409486490667458 0 0 0
25 9 2 -1.1794 2.709466584410465 5.581363634513105 6.5486000451091755 0 0 0
61 21 2 -1.1794 9.161127242647785 5.574544009587103 6.361041298304618 0 0 0
471 157 1 0.5897 9.892686157533 9.255124905891995 7.517318952496324 0 0 0
381 127 1 0.5897 7.943667276740275 5.439309966948021 9.429429155850451 0 0 0
436 146 2 -1.1794 4.367906811415703 7.935687249476416 10.32408720698875 0 0 0
385 129 2 -1.1794 8.867358815236104 5.466190413541403 14.097649306790364 0 0 0
791 264 1 0.5897 5.6446349061188235 9.06921547723238 14.798893903854394 0 0 0
387 129 1 0.5897 8.886298207504582 5.569116554093231 13.146221666436192 0 0 0
491 164 1 0.5897 9.482555634085115 7.948679587551124 11.34479831602356 0 0 0
758 253 1 0.5897 2.550314850640516 9.752857588842732 13.53422811957977 0 0 0
759 253 1 0.5897 2.250084665269713 8.36261528533321 13.01523527519362 0 0 0
454 152 2 -1.1794 2.021936305087272 7.187743476560636 11.599670289310218 0 0 0
455 152 1 0.5897 2.7898770170022034 7.512650375713689 11.129635016341826 0 0 0
456 152 1 0.5897 2.3597586794601124 6.484389377002534 12.154156539790264 0 0 0
792 264 1 0.5897 4.27656340155506 9.048198025159458 14.151003038236048 0 0 0
492 164 1 0.5897 8.136269841322212 7.75878062264135 12.010587596882468 0 0 0
462 154 1 0.5897 5.7310807857477615 7.461612882063168 11.30097857858073 0 0 0
490 164 2 -1.1794 9.076961607259689 7.740730607507453 12.186478576774878 0 0 0
793 265 2 -1.1794 9.020140151335497 9.401447209246504 14.34223232457933 0 0 0
668 223 1 0.5897 1.4563787439036413 5.8207569793666645 14.823340026940036 0 0 0
461 154 1 0.5897 6.078722521917578 8.112260391576237 12.622981880766451 0 0 0
794 265 1 0.5897 8.766593694383445 8.807113034567084 13.636012702222587 0 0 0
757 253 2 -1.1794 2.4460768195455027 8.844750919924044 13.81859108189529 0 0 0
460 154 2 -1.1794 6.3515248059525335 7.413537970045432 12.028273485645427 0 0 0
351 117 1 0.5897 3.224739698830827 5.277706550796762 13.874756667625231 0 0 0
790 264 2 -1.1794 5.209085581794117 9.122655585417817 13.948254210832358 0 0 0
333 111 1 0.5897 5.627010534846654 5.81880583346525 12.512194930181357 0 0 0
349 117 2 -1.1794 2.398585506746132 5.115698985051228 13.419266702538764 0 0 0
705 235 1 0.5897 7.584697952373293 6.004082451227538 15.009483240447645 0 0 0
533 178 1 0.5897 0.1557097734877912 7.428665611280187 11.897010253339234 1 0 0
661 221 2 -1.1794 4.312912642509662 5.861034087674904 15.403027567458757 0 0 0
789 263 1 0.5897 1.1317649347783847 8.625888288756077 15.311547643331819 0 0 0
704 235 1 0.5897 6.112797207120042 5.939743157349165 15.357825328864411 0 0 0
760 254 2 -1.1794 4.031305865990987 8.014078349000018 17.070484531922734 0 0 0
825 275 1 0.5897 7.056268439200012 7.945712183112439 16.034074127870866 0 0 0
675 225 1 0.5897 1.9748696411914883 5.832070249566594 19.989779181967407 0 0 0
787 263 2 -1.1794 0.6494144457186289 8.52105601729799 16.13164333576085 0 0 0
778 260 2 -1.1794 1.9250445467531054 7.443838552325608 18.710479251985227 0 0 0
779 260 1 0.5897 2.1263538406387683 8.084885592653913 19.392255301704896 0 0 0
780 260 1 0.5897 2.6209224177668817 7.555830101092181 18.06283461265371 0 0 0
761 254 1 0.5897 3.9042277721060503 8.96209734609629 17.10948459781556 0 0 0
662 221 1 0.5897 4.079306238225683 5.298455297896377 16.141368975314446 0 0 0
762 254 1 0.5897 4.773895043521328 7.847388604744643 17.65098177798615 0 0 0
786 262 1 0.5897 6.722026248267235 7.6103773781114326 18.570500630348047 0 0 0
785 262 1 0.5897 5.735980332547634 6.62786115735091 19.165873399735585 0 0 0
667 223 2 -1.1794 1.0760672783556517 5.770774848841476 15.700295895640876 0 0 0
815 272 1 0.5897 8.756930510293836 6.857211977533411 18.904308014142913 0 0 0
784 262 2 -1.1794 5.8572176921359 7.558554270855519 18.97749511626186 0 0 0
788 263 1 0.5897 0.9681744874820386 9.230362854494338 16.689852429251314 0 0 0
814 272 2 -1.1794 8.617572914954378 7.5823320525600675 18.295129443113883 0 0 0
663 221 1 0.5897 4.165200553064583 6.7510064971181825 15.723122384584874 0 0 0
816 272 1 0.5897 8.671529402702872 8.367487621203184 18.840068927029254 0 0 0
703 235 2 -1.1794 6.973889971980316 6.112791157970277 15.738392576085513 0 0 0
144 48 1 0.5897 5.582717203132896 8.563910651610497 20.429101207375044 0 0 -1
823 275 2 -1.1794 6.979393514377476 8.899855507535777 16.04456741453636 0 0 0
824 275 1 0.5897 7.771969298111421 9.209363075904948 15.60607928952034 0 0 0
709 237 2 -1.1794 9.16697441070016 5.713845912687008 20.0472271851876 0 0 0
858 286 1 0.5897 0.21847936994158002 7.219379255243969 18.487552942189875 1 0 0
145 49 2 -1.1794 9.021313873774874 9.548094554120427 20.03323697751424 0 0 -1
669 223 1 0.5897 0.9838366604184938 6.683358499144218 15.97424615589643 0 0 0
147 49 1 0.5897 9.76016148903714 9.021970005661732 20.339159558645672 0 0 -1
220 74 2 -1.1794 4.221300433546713 14.629954905991676 3.662433398108326 0 0 0
120 40 1 0.5897 1.9539992360365457 11.56337943656347 3.3277018871587276 0 0 0
246 82 1 0.5897 5.326908388392097 14.027692919255479 4.808591404235563 0 0 0
276 92 1 0.5897 9.072495068719318 14.233235727880555 4.5850647250391265 0 0 0
125 42 1 0.5897 4.899494428511179 10.626379992586687 4.530737854136948 0 0 0
119 40 1 0.5897 3.1441207784100156 10.816203216708699 3.8910519645721435 0 0 0
122 41 1 0.5897 4.992718096174636 12.171132894405142 2.4814814908651983 0 0 0
156 52 1 0.5897 9.055650557784046 10.904932285434546 4.392382793486637 0 0 0
285 95 1 0.5897 8.000658572151965 14.97340269502525 2.589863951062509 0 0 0
222 74 1 0.5897 4.534274214354236 14.17386888483834 2.8812458960844376 0 0 0
123 41 1 0.5897 4.629438887551832 12.440372405224192 1.036716636129869 0 0 0
240 80 1 0.5897 2.6647969239980593 14.168795187880063 4.442312355835235 0 0 0
819 273 1 0.5897 8.650648789579192 12.55330435794963 0.7467458211221686 0 0 1
121 41 2 -1.1794 5.132036719899555 12.795836561881474 1.7697081106774344 0 0 0
118 40 2 -1.1794 2.187412228975908 10.804356440312588 3.8622424009483605 0 0 0
783 261 1 0.5897 2.2361586462961056 12.58598208752288 0.7904737553882106 0 0 1
155 52 1 0.5897 7.745673892053207 10.342254168464518 3.883103737703915 0 0 0
154 52 2 -1.1794 8.118093560645278 11.092446248333186 4.346629250973153 0 0 0
163 55 2 -1.1794 7.769138081405917 12.990257834164538 2.0841237227068956 0 0 0
164 55 1 0.5897 6.837228200814155 12.807211585754162 1.96455998775398 0 0 0
165 55 1 0.5897 8.029249016471745 12.43882341013274 2.8220420363391328 0 0 0
129 43 1 0.5897 1.0073682512644124 13.61680810551859 2.3070366082754297 0 0 0
127 43 2 -1.1794 0.834475113035291 12.694829472492735 2.116100764180433 0 0 0
124 42 2 -1.1794 4.840979542897338 10.656267541202618 3.5758350479887056 0 0 0
238 80 2 -1.1794 1.87685393704345 13.984027984503147 4.953442314129462 0 0 0
188 63 1 0.5897 0.560175784290384 10.648800734468344 4.662348382200516 1 0 0
275 92 1 0.5897 7.7694854180001744 13.818280188476981 5.234601392079971 0 0 0
317 106 1 0.5897 0.08921793304607206 13.668526609152856 5.057344707426667 1 0 0
133 45 2 -1.1794 2.6455091270739466 11.936673727961645 6.842653650438824 0 0 0
134 45 1 0.5897 1.9652022366206294 12.219873722014762 7.453566525081814 0 0 0
135 45 1 0.5897 3.467921738743294 12.150349290631896 7.283369003588748 0 0 0
116 39 1 0.5897 6.902353049452458 11.142166356477075 5.908167428477792 0 0 0
170 57 1 0.5897 9.410636583845973 12.712136505066475 6.470779507949954 0 0 0
544 182 2 -1.1794 4.257571651855724 14.650396467962578 10.097115558339112 0 0 0
115 39 2 -1.1794 6.062380015914807 11.341191788449574 6.32178676639088 0 0 0
446 149 1 0.5897 4.28390692274469 13.370193012949244 9.07178638644112 0 0 0
447 149 1 0.5897 5.552904283060837 12.726642557121103 8.554596434945774 0 0 0
451 151 2 -1.1794 0.8491784908875841 12.887107370227262 8.723742458979176 0 0 0
171 57 1 0.5897 9.171249009851744 11.328039156601982 7.035760821901789 0 0 0
434 145 1 0.5897 2.631055518202648 10.078406023812823 6.900483986416591 0 0 0
169 57 2 -1.1794 9.50563707566833 12.193911404059987 7.269927495183996 0 0 0
489 163 1 0.5897 7.494273884519105 13.607885059883914 9.055968821383471 0 0 0
487 163 2 -1.1794 7.27729491346483 12.701016839339069 8.839559619013729 0 0 0
488 163 1 0.5897 7.868456106574246 12.4778183322658 8.120574909020387 0 0 0
450 150 1 0.5897 4.306005980648879 11.279878118728739 9.625614170109255 0 0 0
445 149 2 -1.1794 4.606241913766501 12.596147061835554 8.609952646136074 0 0 0
453 151 1 0.5897 1.042961271210708 12.171467178920983 9.329178905928549 0 0 0
573 191 1 0.5897 0.4497986387731093 14.732237297928819 9.277435779889148 0 0 0
117 39 1 0.5897 5.924106047302122 10.624526427488714 6.941123896853175 0 0 0
244 82 2 -1.1794 6.0269257020546485 13.834543939338852 5.432216455581058 0 0 0
274 92 2 -1.1794 8.691431220123343 13.988041745858554 5.428164185642531 0 0 0
239 80 1 0.5897 2.110749464643427 13.226231412101772 5.489512944348197 0 0 0
245 82 1 0.5897 5.753664392539126 13.020432132313772 5.855171429584819 0 0 0
448 150 2 -1.1794 3.983120020293019 10.61433911936912 10.233155111807191 0 0 0
480 160 1 0.5897 7.678927283859871 11.701335398519241 10.284786088189275 0 0 0
443 148 1 0.5897 0.8517921091591094 10.062650729201309 10.009543523542886 0 0 0
600 200 1 0.5897 8.864218374332856 14.828449433053686 12.506023164232479 0 0 0
775 259 2 -1.1794 0.6106043148202829 12.076713238393854 15.356569011907435 0 0 0
457 153 2 -1.1794 2.4197684405643183 11.614425716415091 13.187539930785928 0 0 0
458 153 1 0.5897 1.768232779862596 12.042683558872143 13.742846250559 0 0 0
459 153 1 0.5897 3.260362176823335 11.840609952962238 13.585665642181736 0 0 0
769 257 2 -1.1794 4.340258559630753 12.448330725515872 14.86333832398834 0 0 0
562 188 2 -1.1794 1.83478250134863 13.859809333678905 11.488068040687438 0 0 0
563 188 1 0.5897 2.0845251445293234 12.993750463545608 11.810454167115585 0 0 0
478 160 2 -1.1794 7.917751411844024 10.958181104151834 10.838825734148475 0 0 0
570 190 1 0.5897 6.793913517176003 14.021109915915893 11.979871021809425 0 0 0
545 182 1 0.5897 3.386175462684425 14.54413075312414 10.478704194944914 0 0 0
479 160 1 0.5897 8.874844087835209 10.966340905600367 10.85180283287595 0 0 0
449 150 1 0.5897 4.379631167857137 10.844047610640926 11.073527466832555 0 0 0
440 147 1 0.5897 6.463231904660109 11.382570787625422 12.01774675597522 0 0 0
439 147 2 -1.1794 5.623762658727419 11.422241452641407 12.475953903012835 0 0 0
444 148 1 0.5897 2.136520721492187 10.681265671139304 10.518265064505648 0 0 0
441 147 1 0.5897 5.570688270577379 10.593324689170734 12.951764377026283 0 0 0
494 165 1 0.5897 8.550095651139246 12.19537539186801 14.318380563211253 0 0 0
568 190 2 -1.1794 5.87114072556254 14.150778384730808 12.198779504559498 0 0 0
493 165 2 -1.1794 9.225663054597629 12.068752824826836 13.652192451105 0 0 0
795 265 1 0.5897 8.918996237059226 10.276524236440133 13.967558626566444 0 0 0
598 200 2 -1.1794 8.677111414481862 14.07808668747547 11.941886583418075 0 0 0
599 200 1 0.5897 8.846746641481522 13.314562158761477 12.493766896687236 0 0 0
569 190 1 0.5897 5.5584197665177255 13.280314746234016 12.445420658766897 0 0 0
642 214 1 0.5897 0.15440400569807128 13.86209068412044 11.758850529309797 1 0 0
442 148 2 -1.1794 1.1846825411438313 10.734738394696794 10.604320694158577 0 0 0
564 188 1 0.5897 2.338131286246737 14.470708230251704 12.026301370566543 0 0 0
546 182 1 0.5897 4.857691112253993 14.538796436709818 10.83441796894954 0 0 0
811 271 2 -1.1794 7.250294859780962 12.654210426319882 15.368225506632111 0 0 0
771 257 1 0.5897 4.599640476958417 13.206100149213016 15.387586599835384 0 0 0
770 257 1 0.5897 5.161421120248032 11.993275136785053 14.676504104915658 0 0 0
895 299 2 -1.1794 1.2032230766665313 14.992013220070222 15.174940734953042 0 0 0
581 194 1 0.5897 9.92402331347931 14.331201436158885 10.695965635064866 0 0 0
886 296 2 -1.1794 1.8345373267579428 13.98278708753281 18.5315640840112 0 0 0
804 268 1 0.5897 7.463308200192084 10.392969474438889 17.185859878265838 0 0 0
773 258 1 0.5897 3.2441552877943316 10.981905264961046 17.642422988686594 0 0 0
768 256 1 0.5897 1.2330730456276715 11.473302295088823 16.93971412803912 0 0 0
818 273 1 0.5897 8.901726958583698 12.917084331078904 19.57274300353881 0 0 0
888 296 1 0.5897 2.225053604843237 13.268432935268187 19.0350601270293 0 0 0
774 258 1 0.5897 3.9722744178527787 11.447470211587849 16.399453339746 0 0 0
772 258 2 -1.1794 4.107635961229348 10.990201997082504 17.229403814937598 0 0 0
782 261 1 0.5897 2.983727903370904 11.413799244721382 20.464993246543262 0 0 0
803 268 1 0.5897 7.234380317219181 11.342949251976917 18.342193499842686 0 0 0
813 271 1 0.5897 7.327941352595099 12.156066892303919 16.181898897828688 0 0 0
870 290 1 0.5897 4.972259775923967 14.16435240961208 17.794915382872155 0 0 0
802 268 2 -1.1794 7.756569624570185 11.229108349154597 17.548120382820805 0 0 0
766 256 2 -1.1794 1.4031663829554886 10.873228446830451 17.665807847880952 0 0 0
765 255 1 0.5897 5.666686054975808 10.696535692482376 19.74148104985475 0 0 0
924 308 1 0.5897 9.258613350476235 14.436472213031136 18.01590793975992 0 0 0
893 298 1 0.5897 6.870215243825446 14.275455818098022 18.826560251832802 0 0 0
810 270 1 0.5897 9.462909255034548 10.867473814767935 17.300709091644976 0 0 0
869 290 1 0.5897 3.531113060248951 14.04784977964517 17.34609324153602 0 0 0
146 49 1 0.5897 9.314999825721175 10.453974832025398 20.13069524846016 0 0 -1
922 308 2 -1.1794 8.609305431961051 14.542441465171144 18.7111701327346 0 0 0
894 298 1 0.5897 5.8992347399964755 13.177871699399189 19.206860341944363 0 0 0
767 256 1 0.5897 0.5525802570376532 10.763824139181201 18.090990130203757 0 0 0
764 255 1 0.5897 5.091733392303768 11.343829997189385 18.499573054227067 0 0 0
763 255 2 -1.1794 5.64978549673093 11.521738391983753 19.256605109484664 0 0 0
892 298 2 -1.1794 5.9854097024212445 14.130198322177089 19.16161307345334 0 0 0
817 273 2 -1.1794 9.261482525210027 12.40691789387576 20.29837514593462 0 0 0
781 261 2 -1.1794 2.907044067918832 12.366840500087404 20.417760831455766 0 0 0
868 290 2 -1.1794 4.413963217432104 14.221534313541767 17.01951799424291 0 0 0
812 271 1 0.5897 7.324672704075436 13.569360128691859 15.638949296504967 0 0 0
887 296 1 0.5897 2.101233801422568 14.776851097318303 18.99486100060705 0 0 0
777 259 1 0.5897 0.6993421269502935 13.014137676627586 15.529062787623934 0 0 0
965 322 1 0.5897 0.07727533915137741 13.947946118902491 18.59159310973551 1 0 0
224 75 1 0.5897 5.913460374938964 17.277220050689607 4.874528536524697 0 0 0
264 88 1 0.5897 9.678254245466174 17.64760845764141 3.6844875004684545 0 0 0
248 83 1 0.5897 1.3819485341009932 16.162539306589572 3.2363989121735703 0 0 0
890 297 1 0.5897 1.9654179564342908 18.83776127137608 0.7277670871707237 0 0 1
229 77 2 -1.1794 4.7460745289245905 19.274870936618235 1.6803966129813712 0 0 0
235 79 2 -1.1794 1.1005485631673515 19.15189794411664 2.306060489355936 0 0 0
271 91 2 -1.1794 7.517729474368074 19.507436947067852 1.894149154590741 0 0 0
230 77 1 0.5897 4.206524709825855 19.007488822919562 0.9363424848323012 0 0 0
234 78 1 0.5897 3.6301241718946122 17.434871922538044 4.002791993365673 0 0 0
226 76 2 -1.1794 1.716238522434125 17.35764905259822 4.33171975992291 0 0 0
227 76 1 0.5897 1.6567760208049884 18.04128088177201 3.6643355578795003 0 0 0
233 78 1 0.5897 4.476289895922991 18.017674954290726 2.890942077726551 0 0 0
232 78 2 -1.1794 4.488173363489482 17.358979208385207 3.585391905978517 0 0 0
249 83 1 0.5897 1.8607310716407388 15.893345516628425 1.8257556643495931 0 0 0