LAMMPS (30 Jul 2021)
  using 1 OpenMP thread(s) per MPI task
package omp 0
using multi-threaded neighbor list subroutines
echo both

include		in.partitions
variable        pid world 0
include		in.temp
variable        temperature equal 224.84
variable	tempDamp equal 100.0
include		in.pressure
variable        pressure equal 2500.0
variable        pressureDamp equal 1000.0 # This is 1 ps
include		in.seed
variable        seed world 745823

units		real
atom_style	full
read_restart	restart.lmp.${pid}
read_restart	restart.lmp.0
Reading restart file ...
  restart file = 30 Jul 2021, LAMMPS = 30 Jul 2021
  restoring atom style full from restart
  orthogonal box = (0.32193050 1.4707229 0.39275446) to (17.885642 22.158455 21.820441)
  4 by 4 by 4 MPI processor grid
  restoring pair style lj/cut/tip4p/long/omp from restart
  restoring bond style harmonic/omp from restart
  restoring angle style harmonic/omp from restart
  864 atoms
  576 bonds
  288 angles
Finding 1-2 1-3 1-4 neighbors ...
  special bond factors lj:    0        0        0       
  special bond factors coul:  0        0        0       
     2 = max # of 1-2 neighbors
     1 = max # of 1-3 neighbors
     1 = max # of 1-4 neighbors
     2 = max # of special neighbors
  special bonds CPU = 0.381 seconds
  read_restart CPU = 0.672 seconds
include 	in.setup
variable	out_freq equal 1000
variable	out_freq2 equal 10000
variable	out_freq3 equal 1000

timestep	2.0

neigh_modify    delay 7 every 1

include		in.tip4p
# This is TIP4P/Ice

# create groups ###
group ox type 2
288 atoms in group ox
group hy type 1
576 atoms in group hy

# set charges - beside manually ###
set group ox charge -1.1794
Setting atom values ...
  288 settings made for charge
set group hy charge 0.5897
Setting atom values ...
  576 settings made for charge

# ### TIP3P Potential Parameters ###
pair_style lj/cut/tip4p/long/omp 2 1 1 1 0.1577 8.5
pair_coeff 1 1*2 0.000 0.000
pair_coeff 2 2 0.21084 3.1668
bond_style  harmonic
bond_coeff  1 450 0.9572
angle_style harmonic
angle_coeff 1 55 104.52
kspace_style pppm/tip4p/omp 1.0e-5
pair_modify tail yes

thermo          ${out_freq}
thermo          1000
thermo_style    custom step temp pe etotal epair emol press lx ly lz vol pxx pyy pzz pxy pxz pyz enthalpy

restart 	${out_freq3} restart.lmp.${pid} restart2.lmp.${pid}
restart 	1000 restart.lmp.${pid} restart2.lmp.${pid}
restart 	1000 restart.lmp.0 restart2.lmp.${pid}
restart 	1000 restart.lmp.0 restart2.lmp.0


include         in.dump
dump            myDump all atom ${out_freq2} dump.water.${pid}
dump            myDump all atom 10000 dump.water.${pid}
dump            myDump all atom 10000 dump.water.0
dump            myDump2 all dcd ${out_freq2} dump.dcd
dump            myDump2 all dcd 10000 dump.dcd
dump_modify     myDump append yes
dump_modify     myDump2 append yes


variable natoms 	equal  "count(all)"                        # NUMBER ATOMS
variable H      	equal  "enthalpy/v_natoms"                 # ENTHALPY-per-atom
variable Vol      	equal  "vol/v_natoms"                 # volume-per-atom
fix AVG all 		ave/time ${out_freq} 1 ${out_freq} v_Vol v_H file vol_enthalpy.dat
fix AVG all 		ave/time 1000 1 ${out_freq} v_Vol v_H file vol_enthalpy.dat
fix AVG all 		ave/time 1000 1 1000 v_Vol v_H file vol_enthalpy.dat


timer           timeout 23:50:00 every 1000
New timer settings: style=normal  mode=nosync  timeout=23:50:00

fix 		1 all shake 1e-6 200 0 b 1 a 1
       0 = # of size 2 clusters
       0 = # of size 3 clusters
       0 = # of size 4 clusters
     288 = # of frozen angles
  find clusters CPU = 0.001 seconds
fix             2 all nph iso ${pressure} ${pressure} ${pressureDamp}
fix             2 all nph iso 2500 ${pressure} ${pressureDamp}
fix             2 all nph iso 2500 2500 ${pressureDamp}
fix             2 all nph iso 2500 2500 1000
fix             3 all temp/csvr ${temperature} ${temperature} ${tempDamp} ${seed}
fix             3 all temp/csvr 224.84 ${temperature} ${tempDamp} ${seed}
fix             3 all temp/csvr 224.84 224.84 ${tempDamp} ${seed}
fix             3 all temp/csvr 224.84 224.84 100 ${seed}
fix             3 all temp/csvr 224.84 224.84 100 745823

run             250000
PPPM initialization ...
  extracting TIP4P info from pair style
  using 12-bit tables for long-range coulomb (../kspace.cpp:340)
  G vector (1/distance) = 0.37301108
  grid = 24 24 25
  stencil order = 5
  estimated absolute RMS force accuracy = 0.0032134425
  estimated relative force accuracy = 9.6771867e-06
  using double precision FFTW3
  3d grid and FFT values/proc = 2730 288
Last active /omp style is kspace_style pppm/tip4p/omp
Neighbor list info ...
  update every 1 steps, delay 7 steps, check yes
  max neighbors/atom: 2000, page size: 100000
  master list distance cutoff = 10.8154
  ghost atom cutoff = 10.8154
  binsize = 5.4077, bins = 4 4 4
  1 neighbor lists, perpetual/occasional/extra = 1 0 0
  (1) pair lj/cut/tip4p/long/omp, perpetual
      attributes: half, newton on, omp
      pair build: half/bin/newton/omp
      stencil: half/bin/3d
      bin: standard
Per MPI rank memory allocation (min/avg/max) = 9.235 | 9.240 | 9.247 Mbytes
Step Temp PotEng TotEng E_pair E_mol Press Lx Ly Lz Volume Pxx Pyy Pzz Pxy Pxz Pyz Enthalpy 
 6250000    233.93871    -4007.594    -3606.631    -4007.594            0    2101.8942    17.563711    20.687732    21.427687    7785.8219    1644.1173    1065.6197    3595.9455   -666.35956    25.149989    1859.8509   -3367.9647 
 6251000    223.26096   -4014.7358   -3632.0741   -4014.7358            0    1283.9827    17.597684    20.727747    21.469133    7831.0882     2017.903    -59.61951    1893.6646    1008.3754  -0.27281428     -138.744   -3485.4325 
 6252000    225.02071   -4036.7606   -3651.0828   -4036.7606            0    1430.8928    17.643173    20.781327    21.524629     7891.974     1868.516    960.43325    1463.7292    129.13455   -1086.8837   -342.41587   -3486.3923 
 6253000    215.84516    -4007.536   -3637.5848    -4007.536            0     3309.325    17.506427    20.620259    21.357801    7709.8898    4278.9233    2376.4186     3272.633   -1097.2768    -1083.586   -539.50419   -3265.4816 
 6254000    208.04893   -4031.4296   -3674.8409   -4031.4296            0    2366.5835    17.566697    20.691248    21.431329    7789.7925    4113.3857     1016.618     1969.747   -665.91599    904.01759    -49.46291   -3405.9825 
 6255000    224.90686   -4015.5172   -3630.0346   -4015.5172            0    3656.5132    17.505678    20.619376    21.356886    7708.8992    4795.3738    3194.7969    2979.3689    47.354623   -451.99696    -813.6066    -3218.946 
 6256000    233.78627   -4018.2294   -3617.5277   -4018.2294            0    3815.4923    17.531943    20.650312    21.388929    7743.6498    4333.5078    3695.8113    3417.1577   -964.23145   -832.99977     748.2395    -3186.632 
 6257000    231.47843   -4024.8121    -3628.066   -4024.8121            0    3354.3173    17.534029     20.65277    21.391474    7746.4147    4203.0582    4387.8906     1472.003   -803.93946   -284.03175    469.59271    -3249.117 
 6258000     232.1497   -4017.1325   -3619.2359   -4017.1325            0    2802.4724    17.594103    20.723529    21.464764    7826.3084    3129.7749    2264.8644    3012.7779    308.02483   -718.92992   -629.48398   -3299.3654 
 6259000    237.85035   -4014.2889   -3606.6215   -4014.2889            0    3356.7115    17.567485    20.692176     21.43229    7790.8407    3206.0256    3367.0631    3497.0458    354.34822   -1028.0615   -212.48504   -3225.2272 
 6260000    227.70785   -4011.7386   -3621.4551   -4011.7386            0     4053.698    17.549973     20.67155    21.410926    7767.5658    3643.0769    5493.1312    3024.8859   -1444.4934    164.82493   -457.57256   -3162.2442 
 6261000    223.02059   -4024.1685   -3641.9188   -4024.1685            0    2890.0051     17.54485    20.665516    21.404676    7760.7655    3590.8923    3159.5475    1919.5756    535.83635   -152.61054   -1167.5835     -3314.82 
 6262000    226.13057   -3973.1266   -3585.5465   -3973.1266            0    3627.3211    17.569811    20.694917    21.435128    7793.9364    2420.5773    3797.4803    4663.9058   -807.72396     434.2849    243.86885   -3173.2413 
 6263000    232.86128   -4009.9573   -3610.8411   -4009.9573            0    2845.0918    17.591874    20.720904    21.462045    7823.3345    1795.5949    3511.3935    3228.2869     25.33377   -253.90079   -116.27061   -3286.2294 
 6264000    219.55673   -4034.5545   -3658.2418   -4034.5545            0     3248.498    17.559359    20.682605    21.422377    7780.0352    2609.0857    3044.8293    4091.5788    106.52153    1690.0688   -105.36064   -3289.6548 
 6265000    222.30762   -4023.3185   -3642.2908   -4023.3185            0    3014.7581    17.568276    20.693109    21.433256    7791.8939    1680.1568    4982.1536     2381.964    -434.5404   -310.88216   -654.39668   -3299.7034 
 6266000    214.34497   -3990.0667   -3622.6868   -3990.0667            0    3890.2934    17.522992     20.63977    21.378009    7731.7954    2719.0852    4230.3234    4721.4717    265.80328     363.0755    375.77005   -3184.0161 
 6267000    242.08963   -4047.7658   -3632.8325   -4047.7658            0    3211.6527    17.535998    20.655089    21.393876    7749.0243     2118.372    3879.3496    3637.2366   -72.151029   -544.84638    659.72593   -3269.8785 
 6268000    213.07259   -4032.8987   -3667.6996   -4032.8987            0    3552.5844    17.538184    20.657665    21.396544    7751.9236    4075.7277    4378.3754    2203.6501    102.85473    263.40661   -345.16405   -3266.0662 
 6269000    233.49897    -4049.553   -3649.3438    -4049.553            0    2336.1244    17.579852    20.706744    21.447379    7807.3069    2671.5123    2020.4928    2316.3679    392.17882   -45.914028    1026.3388    -3383.349 
 6270000    214.17787   -4030.4094   -3663.3158   -4030.4094            0    2133.5126    17.555732    20.678333    21.417952    7775.2152    2162.7665    2151.4158    2086.3555   -237.68559    689.03573    252.29473   -3421.3893 
 6271000    221.66936   -4040.7655   -3660.8318   -4040.7655            0    1764.3103    17.592242    20.721338    21.462494    7823.8259     1723.537    1799.8913    1769.5026   -1033.1866    57.261651    459.30921   -3459.5196 
 6272000    235.76005    -4023.298   -3619.2134    -4023.298            0    1770.4883    17.559561    20.682843    21.422623    7780.3037    585.09623    3184.4043    1541.9645   -310.52193    528.40126    1678.7791   -3418.3201 
 6273000    205.16931   -4002.2594   -3650.6062   -4002.2594            0    3913.9961    17.609026    20.741107    21.482971    7846.2402    2663.3251    5750.9914    3327.6718    332.99124    601.10196   -335.27541   -3202.7301 
 6274000    251.35618    -4030.839   -3600.0231    -4030.839            0    3350.7718    17.521093    20.637533    21.375692     7729.282    2405.0005    4401.2018    3246.1131   -880.67725   -999.75683   -282.26482   -3222.3118 
 6275000    230.70254   -4024.9976   -3629.5814   -4024.9976            0    1352.6348    17.581917    20.709176    21.449898    7810.0583    58.706796    1778.8849    2220.3128     399.6194    127.11549   -759.62536    -3475.514 
 6276000    239.35377   -4022.4456   -3612.2015   -4022.4456            0    4152.8912    17.558432    20.681513    21.421246    7778.8028    4639.9565    3710.4157    4108.3014   -340.28965   -503.13805    726.47941   -3141.0732 
 6277000    240.18439   -4037.9448    -3626.277   -4037.9448            0    2096.0298    17.586797    20.714924    21.455851    7816.5631    1246.4412    1864.3125    3177.3358     191.8136    305.65238    608.04878   -3387.3368 
 6278000    215.57334   -4023.8915   -3654.4062   -4023.8915            0    1755.0704    17.658472    20.799347    21.543294     7912.522    1528.5574      782.491    2954.1629    1090.4847    1017.5964    614.98641    -3451.878 
 6279000    219.71482   -4038.3873   -3661.8036   -4038.3873            0    2904.2974    17.596536    20.726395    21.467732    7829.5555    2414.8251    4150.6945    2147.3725   -506.82083     186.4843    353.45035   -3330.1734 
 6280000    239.18351   -4001.8926   -3591.9402   -4001.8926            0    3573.6729    17.591134    20.720032    21.461142    7822.3473    3113.4217     4580.826     3026.771    831.29992   -554.48164   -1150.8015   -3184.2524 
 6281000    224.82525   -3989.4237   -3604.0809   -3989.4237            0    2507.5141    17.608322    20.740278    21.482112    7845.2995     1192.021    2486.8266    3843.6948   -538.54544    749.26955    1520.2209    -3317.182 
 6282000     214.7336   -3994.9184   -3626.8723   -3994.9184            0    3058.2353    17.642546    20.780589    21.523865    7891.1332    3859.5935    2062.2261    3252.8865    482.87691    564.83907    354.34858   -3274.9181 
 6283000    228.22478   -4020.2644    -3629.095   -4020.2644            0    1712.5585    17.597166    20.727137    21.468502    7830.3972    821.13703    2204.2613     2112.277   -37.691833     98.43476     471.1426   -3433.5237 
 6284000    213.56218   -4034.5693    -3668.531   -4034.5693            0    3342.4527    17.642696    20.780765    21.524047    7891.3337     3921.971     3431.099     2674.288   -581.10872    1179.8877   -436.83306   -3283.8582 
 6285000    209.43335   -4030.9103   -3671.9487   -4030.9103            0    3266.5124    17.578001    20.704563     21.44512    7804.8403    3475.7775    3458.1556     2865.604   -78.282367   -258.80545    300.66875    -3300.136 
 6286000    222.15426   -4029.7497   -3648.9849   -4029.7497            0    1571.6836    17.657706    20.798446    21.542361    7911.4933    1399.5752    1889.5252    1425.9505    713.04217    12.455662   -357.24301   -3467.6424 
 6287000    231.86089   -4013.4014   -3615.9998   -4013.4014            0    1379.8053    17.694447    20.841721    21.587184    7960.9803    1058.9999    1511.5495    1568.8667   -1732.3614   -128.41344    477.01702   -3455.8006 
 6288000    222.08736   -4004.3312   -3623.6811   -4004.3312            0    1352.8455     17.72344    20.875872    21.622556    8000.1784    1876.6032     2069.882     112.0514    963.16432    1327.7513   -385.33794   -3465.8386 
 6289000    230.41084   -4020.9616   -3626.0453   -4020.9616            0      2745.21    17.613479    20.746352    21.488403    7852.1942    1889.0926    2655.2125    3691.3249   -334.94189    544.36741    -695.2809   -3311.6743 
 6290000    223.49676   -4016.0721   -3633.0063   -4016.0721            0    3555.7807    17.636734    20.773743    21.516775    7883.3372    3230.2351    4455.0699     2982.037   -474.67402    504.56498    199.54677   -3224.1968 
 6291000    216.60498   -4014.7578   -3643.5043   -4014.7578            0    2508.4064    17.649478    20.788754    21.532322    7900.4381    2754.5701    2987.9783    1782.6708    612.75724    409.00007    219.68266   -3354.4862 
 6292000    226.02472   -4032.1974   -3644.7988   -4032.1974            0    1365.8057    17.612111     20.74474    21.486734    7850.3645    170.26309    3489.6306    437.52329    596.28286    500.23152    249.70007   -3488.4283 
 6293000    228.08074   -4004.3027   -3613.3801   -4004.3027            0    1083.6226    17.661143    20.802494    21.546554    7916.1138    818.29809    1997.9708    434.59892    761.95167   -106.51064    1166.3075   -3488.2776 
 6294000    229.52505   -4015.0772   -3621.6791   -4015.0772            0     3325.835    17.574661    20.700629    21.441045    7800.3922    2527.2061    5759.6358    1690.6632   -895.19752   -135.26883    1049.8222   -3243.3297 
 6295000    221.83702   -4047.2125   -3666.9914   -4047.2125            0    2315.2075    17.551921    20.673844    21.413302    7770.1524    1430.4044    4281.9264    1233.2918     1126.915    273.98388    1650.4923   -3404.6328 
 6296000    234.32465   -4023.5196   -3621.8952   -4023.5196            0    2322.3138    17.546493    20.667451    21.406681    7762.9462    1931.9745    2981.9321    2053.0347   -96.425694    38.065077    -116.2694   -3358.9753 
 6297000    218.93094   -4023.9744   -3648.7343   -4023.9744            0    2701.5879    17.615634     20.74889    21.491032    7855.0761    2909.5471    3389.2402    1805.9764    527.95211   -372.36665   -747.80605   -3339.2452 
 6298000    224.53836   -4011.6429   -3626.7919   -4011.6429            0    3385.8138    17.599482    20.729865    21.471327    7833.4892    3092.8369    4988.4149    2076.1897   -371.53586     649.2397    389.71021    -3239.985 
 6299000    233.72789   -4018.9854   -3618.3838   -4018.9854            0    1925.9238    17.618213    20.751928    21.494179    7858.5269     2009.306    2009.7867    1758.6787     236.5482    91.586826    293.85066   -3397.6565 
 6300000    228.15771   -4020.8948   -3629.8403   -4020.8948            0    2113.4014    17.582064    20.709348    21.450076    7810.2534    2810.5256    2229.1044    1300.5743    66.649855    849.61752   -1716.4654   -3389.1143 
 6301000    229.76315   -3996.7542   -3602.9481   -3996.7542            0    2821.9606    17.546663    20.667652    21.406888    7763.1721    3873.4237     3082.757    1509.7012    932.21385    698.72338     1349.773   -3283.4516 
 6302000    232.63435   -4033.4872   -3634.7598   -4033.4872            0    922.85247    17.652948     20.79284    21.536555    7905.0985    178.51759   -781.97529    3372.0151   -89.900326    484.04231    21.651766   -3528.3663 
 6303000    222.63689   -4024.8343   -3643.2423   -4024.8343            0     2696.241    17.615926    20.749234    21.491388     7855.467    2957.4124    3102.7706      2028.54   -399.26456    210.51008   -562.10132   -3334.3504 
 6304000    233.83251   -4004.7575   -3603.9766   -4004.7575            0    871.51064     17.64933     20.78858    21.532142    7900.2399    552.10444    1831.2064    231.22112   -74.352999    377.06794    270.13412   -3503.5639 
 6305000    227.95292   -4010.9743   -3620.2707   -4010.9743            0    2063.9511    17.590977    20.719848    21.460951    7822.1385    3244.9705    510.20349    2436.6793   -733.02691   -457.98791   -93.027244   -3384.8196 
 6306000    238.72383   -3979.9881   -3570.8237   -3979.9881            0    4340.4468     17.55612    20.678791    21.418426     7775.731    2953.4938    5383.1134    4684.7332    285.65833    457.98043     10.20312   -3078.6124 
 6307000    223.23105   -3991.2549   -3608.6445   -3991.2549            0    2293.5143    17.637629    20.774797    21.517866    7884.5374    2565.9246    2807.8204     1506.798    21.448039   -1525.4364    956.86638   -3344.9181 
 6308000    225.43545   -3994.3532   -3607.9645   -3994.3532            0    2233.6814    17.594321    20.723787    21.465031    7826.6002    103.61082     3918.337    2679.0965    524.83535    46.234731   -965.75604   -3353.0056 
 6309000    232.90411   -3993.2351   -3594.0454   -3993.2351            0    3162.8316    17.570637    20.695889    21.436136    7795.0355    2936.2089    3643.3712    2908.9148    242.67183    1347.2201      488.186   -3234.4865 
 6310000    224.97573   -4039.3628    -3653.762   -4039.3628            0    1957.4487    17.557868     20.68085    21.420558     7778.054    1253.4527    1970.8735    2648.0201    187.63025   -1116.4799   -1037.9261    -3431.719 
 6311000    217.73323   -3997.8528   -3624.6655   -3997.8528            0    1385.8538    17.603096    20.734122    21.475736    7838.3157    767.25328    1100.5122    2289.7959    -61.75593    219.87874    1172.7817   -3466.2433 
 6312000    222.83193   -3989.2329   -3607.3066   -3989.2329            0    882.81577    17.631628    20.767729    21.510545    7876.4921    1490.6165    5.4701179    1152.3607   -1370.0414    -630.4655    749.42476    -3505.897 
 6313000    227.85539   -3977.3466   -3586.8103   -3977.3466            0    3220.6264    17.541914    20.662058    21.401094    7756.8704    2820.8917    4243.0336    2597.9538   -637.88399   -1287.4446   -205.05888   -3222.4737 
 6314000    225.73666   -4012.6126   -3625.7077   -4012.6126            0    1850.2567    17.582835    20.710257    21.451018    7811.2817   -25.243505    2224.2951    3351.7186   -671.17553    1187.2173     611.1542   -3414.9273 
 6315000    218.32976   -4027.6153   -3653.4055   -4027.6153            0     3278.836    17.603323     20.73439    21.476013    7838.6195    3989.7834    2601.4402    3245.2843   -105.35792   -407.15071    323.03828   -3278.5748 
 6316000    231.47295   -3992.4773   -3595.7406   -3992.4773            0    2901.2748    17.618209    20.751923    21.494174    7858.5221    1873.3418    3124.3426    3706.1402    652.74178   -49.796188    99.486904   -3263.2298 
 6317000    210.45414   -4032.8602    -3672.149   -4032.8602            0     1727.903    17.638268    20.775549    21.518645    7885.3936    1572.4055     1879.306    1731.9976    126.12122    522.32059    493.82011   -3473.4395 
 6318000    222.58651    -4011.641   -3630.1353    -4011.641            0    2311.4952    17.592957    20.722179    21.463366    7824.7791    2551.6603    1814.7918    2568.0335   -236.71576   -173.18574    508.95248   -3366.3559 
 6319000    218.22002   -4043.6148   -3669.5932   -4043.6148            0    1390.6315    17.659643    20.800727    21.544723    7914.0969    1679.1806    1094.5388    1398.1751   -684.36425    284.50029    1136.8534   -3509.0879 
 6320000    213.00263   -3993.1262    -3628.047   -3993.1262            0    1751.4445    17.638208    20.775479    21.518572    7885.3132    1251.6459    2082.4997    1920.1879   -1421.1737   -508.21214   -348.31866   -3426.6322 
 6321000    217.62085   -4016.8699   -3643.8752   -4016.8699            0    2595.2838    17.662693     20.80432    21.548445    7918.1984    2931.0087    1948.2832    2906.5596   -48.436177    1579.2926    1478.6231   -3344.1749 
 6322000    233.25645   -3969.7369   -3569.9434   -3969.7369            0    2703.7374    17.637049    20.774114    21.517158    7883.7587    3465.0544    3455.6336    1190.5241   -1477.5855    1194.8521     612.2217    -3259.077 
 6323000    211.46958   -4021.1467   -3658.6951   -4021.1467            0    180.82295    17.738623    20.893755    21.641079    8020.7564    222.99032   -222.21007     541.6886    419.22512   -646.61723    604.00898   -3637.5434 
 6324000    221.17863   -4013.3069   -3634.2143   -4013.3069            0    3423.7302    17.682037    20.827104    21.572044    7944.2425    3755.9162    3980.9988    2534.2755   -1163.0899   -1213.7526   -598.83444   -3237.5456 
 6325000    229.42046   -4025.2454   -3632.0266   -4025.2454            0    3320.7633    17.605707    20.737197    21.478921     7841.804    3308.1627    2801.8567    3852.2704   -273.27328    455.44736    876.60106   -3252.2486 
 6326000    224.67879   -4026.9874   -3641.8956   -4026.9874            0    3348.8944    17.646165    20.784851     21.52828    7895.9899    4550.8171    3254.0991    2241.7669   -245.08687    99.907877    575.50337    -3256.254 
 6327000    222.91705   -4038.1702    -3656.098   -4038.1702            0    3615.4833    17.605194    20.736593    21.478296     7841.119    4028.0572     3163.785    3654.6078    -95.33366   -202.23242   -389.28831   -3242.6506 
 6328000    242.92149   -4015.3596   -3599.0005   -4015.3596            0    2304.7712    17.699778       20.848    21.593688    7968.1783    147.08147    3319.4471    3447.7851   -1387.7397    -206.7241   -285.09328   -3331.1683 
 6329000    222.16915   -4021.5987   -3640.8084   -4021.5987            0    1336.6359    17.635053    20.771763    21.514724    7881.0833    866.54623    940.33081    2203.0308   -182.28348    51.211659    146.42775   -3487.1788 
 6330000    232.17541   -3992.2759   -3594.3352   -3992.2759            0    2591.3058    17.625883    20.760962    21.503536    7868.7952    3449.4954    1282.7256    3041.6964    341.65554    398.21714    987.94115   -3296.9614 
 6331000    226.09003   -4015.8813   -3628.3707   -4015.8813            0    2084.4392    17.686985    20.832932     21.57808    7950.9132    1642.6801    3562.8834    1047.7542   -1536.2261    661.06743   -407.94944   -3386.6677 
 6332000    223.75762   -4036.1076   -3652.5947   -4036.1076            0    1990.9775    17.691157    20.837846     21.58317     7956.541    2315.3925    2064.2593    1593.2808   -2120.9317    -1326.727   -640.27463   -3421.5657 
 6333000    218.04877   -4021.5522   -3647.8241   -4021.5522            0    3333.0867    17.664033    20.805898    21.550079    7920.0002    2853.8292    4685.0215    2460.4093   -273.48685   -700.82167   -41.933892   -3262.8357 
 6334000    235.61238   -4002.1205   -3598.2889   -4002.1205            0    2686.0967    17.689148     20.83548    21.580719    7953.8304    2870.5822    3352.4827    1835.2252    917.66937   -262.65552    1604.9629   -3286.7059 
 6335000    232.90555   -4025.7129   -3626.5208   -4025.7129            0    3356.8058    17.673477    20.817022    21.561601    7932.7103    3480.9096    3821.6879      2767.82    705.75397    392.24302    132.43863   -3238.1704 
 6336000    218.58468   -4005.9526   -3631.3059   -4005.9526            0    1598.1037    17.683499    20.828826    21.573828    7946.2134     2281.283    2072.3514    440.67663    445.33819    784.93504   -517.39583   -3446.1059 
 6337000    220.87598   -4020.3655   -3641.7917   -4020.3655            0    2494.1983    17.611534    20.744061     21.48603    7849.5932    3977.4576    1256.9131    2248.2242   -505.14986   -214.12353    895.66302   -3356.2602 
 6338000    239.71771   -4020.4898   -3609.6218   -4020.4898            0    2533.5643    17.651505    20.791142    21.534795    7903.1609    2174.0999    1555.3659     3871.227   -417.57081    -549.7341   -127.99375   -3317.6045 
 6339000    210.14688   -4025.1268   -3664.9423   -4025.1268            0    677.57198    17.669676    20.812544    21.556963    7927.5927   -1307.5223    1785.8045    1554.4337    399.60771   -529.19394    -132.2193   -3586.6043 
 6340000    221.28585   -4000.1383   -3620.8619   -4000.1383            0     1830.871    17.629001    20.764634     21.50734    7872.9714    2866.7188    1261.1782    1364.7161    599.98475   -634.82257   -971.33757   -3410.6428 
 6341000    215.47251   -4022.2425     -3652.93   -4022.2425            0    2159.3297    17.669242    20.812034    21.556434    7927.0094    3783.8817    406.51068    2287.5967    389.14517   -1912.7154     127.2789   -3403.2957 
 6342000    223.03205   -3980.6054   -3598.3361   -3980.6054            0    2100.3136     17.64317    20.781324    21.524626    7891.9707    4372.9051     1266.283    661.75282    -144.3675    663.99405    899.30036   -3356.5978 
 6343000    220.18517   -4007.4289    -3630.039   -4007.4289            0     1796.151    17.591859    20.720886    21.462027    7823.3144    1093.5695    2285.4129    2009.4706   -389.22688    714.15193   -288.92205   -3425.1071 
 6344000    224.57871   -3991.7914   -3606.8712   -3991.7914            0    2277.0193    17.646184    20.784873    21.528303     7896.015    2724.8965    1954.3011    2151.8604   -371.62856   -1278.0835    148.75416   -3344.6604 
 6345000    212.96271   -4002.5322   -3637.5214   -4002.5322            0     2657.828    17.701177    20.849649    21.595395    7970.0681      1961.74    4052.7982    1958.9459     630.4341    425.68692   -642.50758    -3328.588 
 6346000    239.61838   -4008.8943   -3598.1966   -4008.8943            0    3687.2874    17.646761    20.785553    21.529007      7896.79    4900.1176     2826.503    3335.2415    209.04443    908.30129   -386.57709   -3173.5443 
 6347000    223.48427   -4011.1232   -3628.0788   -4011.1232            0    2327.4817    17.651854    20.791552     21.53522     7903.629    2923.5811    1410.9384    2647.9257    2161.1533    166.02561    41.080038   -3359.7985 
 6348000    212.94143   -4025.0034    -3660.029   -4025.0034            0    521.34585    17.658768    20.799696    21.543656    7912.9201     1936.921   -311.79726   -61.086191    81.924538    882.85313    85.303185   -3599.8648 
 6349000    222.62248   -4007.8526   -3626.2853   -4007.8526            0    3517.4126    17.598571    20.728792    21.470216    7832.2732    3953.7834    3329.0332    3269.4213    1153.5306   -985.20567    -789.1578   -3224.5065 
 6350000    221.37426   -4020.5849    -3641.157   -4020.5849            0    1977.7343    17.614304    20.747323     21.48941    7853.2975    2654.6059    2127.0878    1151.5092    1218.9481    457.85883     443.2682   -3414.6426 
 6351000    216.53241   -4022.2687   -3651.1396   -4022.2687            0    3215.1865    17.591118    20.720013    21.461123    7822.3257    1692.3743    4646.5397    3306.6456   -192.06089   -1297.9975    1044.6042   -3284.3492 
 6352000    231.89925   -4008.1453   -3610.6779   -4008.1453            0    3458.8876    17.602268    20.733147    21.474726      7837.21    3247.1572    2874.7051    4254.8007   -164.06132    693.41297    1732.0013   -3215.3351 
 6353000    224.23306   -4004.8915   -3620.5637   -4004.8915            0    2696.7095    17.672704     20.81611    21.560657    7931.6687    3773.4085    3382.0737    934.64633   -32.000559   -746.60958    586.02821   -3308.6211 
 6354000    219.74718    -4017.471   -3640.8319    -4017.471            0    1971.5417    17.686933    20.832871    21.578017    7950.8428    1453.3752    1912.4207    2548.8294   -376.11415    64.200684    330.29226    -3412.222 
 6355000      235.345   -4006.3393    -3602.966   -4006.3393            0    3889.9097    17.680808    20.825656    21.570545    7942.5858    3959.6296    4670.7344    3039.3652   -312.54493   -416.67552   -153.60744   -3152.3804 
 6356000    211.98466   -4003.6166   -3640.2821   -4003.6166            0    1534.7499    17.763756    20.923358    21.671741    8054.8969    2069.5604     984.3462    1550.3431   -23.288283    2015.2954    121.27119   -3459.9913 
 6357000    225.00455    -4026.105   -3640.4549    -4026.105            0    2391.5154     17.70338    20.852243    21.598082    7973.0441    2372.3944    2096.6224    2705.5295    456.96579   -583.13584    1487.8027   -3362.3727 
 6358000    207.48453   -3970.4187   -3614.7973   -3970.4187            0     3304.168    17.698736    20.846773    21.592416    7966.7706     4144.864    4189.2449    1578.3951    -371.4614    480.82024    248.62786   -3230.8953 
 6359000    229.56364   -4027.9883   -3634.5241   -4027.9883            0    3806.6073    17.748632    20.905545     21.65329    8034.3413    3627.7263    3955.6078    3836.4876   -966.83766   -27.030828   -450.79509   -3188.4939 
 6360000    216.21619   -4001.9401   -3631.3529   -4001.9401            0    3133.9132    17.741641     20.89731    21.644761    8024.8511      3273.31    3499.3312    2629.0982   -1119.9385    441.23991    175.56224   -3264.5778 
 6361000    232.51896   -4026.8401   -3628.3106   -4026.8401            0    1548.9458    17.839605    21.012698    21.764276     8158.518    2307.2208    1430.8865    908.73003   -674.41513   -548.46048   -837.40152   -3444.0114 
 6362000     226.2467   -4016.6723   -3628.8932   -4016.6723            0    2796.4896    17.781221     20.94393    21.693048    8078.6786    4743.9326    2859.5292    786.00711    60.359155    183.27334   -406.71885   -3299.4129 
 6363000    217.76112   -4010.2426   -3637.0075   -4010.2426            0    4049.8322    17.713435    20.864086    21.610349    7986.6366    5415.0594    4227.6736    2506.7635    -154.9293   -421.34919    253.81425   -3165.2956 
 6364000    237.01154    -3999.106   -3592.8764    -3999.106            0    2079.0913    17.799972    20.966016    21.715924    8104.2634    3102.0091    1193.5557     1941.709    1310.9167   -786.91941    180.03695   -3347.1437 
 6365000    228.84321   -3994.8012   -3602.5717   -3994.8012            0    1992.1813    17.654342    20.794483    21.538256    7906.9719    1641.9396    2464.1828    1870.4214    1113.7022   -1495.9976    1671.5875   -3372.8432 
 6366000    214.63148   -4003.9319   -3636.0609   -4003.9319            0    2511.3099    17.671704    20.814933    21.559438    7930.3231    3334.0907    2492.3727    1707.4664    1.4954491   -67.030846    298.63811   -3345.6137 
 6367000      217.578   -4032.1653   -3659.2441   -4032.1653            0    4129.1521    17.599584    20.729986    21.471452    7833.6259    5361.1983    3284.3834    3741.8745   -358.54814    -48.82058   -521.96313   -3187.5075 
 6368000    222.94003   -4033.7704   -3651.6589   -4033.7704            0    1359.0641    17.637408    20.774537    21.517597    7884.2411    1660.4503   -191.23142    2607.9735    469.87913   -1632.6513   -564.16062   -3495.3888 
 6369000      220.089   -4002.3632   -3625.1382   -4002.3632            0    3273.7484    17.616999    20.750497    21.492697    7856.9021    3864.3774    2187.4107     3769.457    431.78006   -2677.0347    1176.0201   -3250.0162 
 6370000      217.573   -4020.5847    -3647.672   -4020.5847            0    2892.4652     17.64185    20.779769    21.523016    7890.1993    3779.7034    2524.1401    2373.5521   -155.93083   -313.88709     1521.227   -3314.8347 
 6371000    226.28726   -4030.8717   -3643.0231   -4030.8717            0    2573.2004    17.689603    20.836016    21.581275     7954.445    2729.4627    2936.6042    2053.5343    -836.0832    428.47072    734.29978   -3344.5127 
 6372000    234.91075   -4005.4253   -3602.7963   -4005.4253            0    1633.7822    17.725924    20.878797    21.625586    8003.5422    1183.1614    1935.6602    1782.5249   -676.40262   -113.05965    658.71195   -3412.0956 
 6373000    215.99306    -4013.587   -3643.3823    -4013.587            0    2339.6333     17.61663    20.750063    21.492247    7856.4091    2201.2832    2336.1881    2481.4287    132.25106    494.40501    452.47059   -3375.3126 
 6374000    231.20084   -4003.3246   -3607.0543   -4003.3246            0    2409.7149    17.723969    20.876495    21.623201     8000.895    3240.4051    2945.3753    1043.3643   -1331.0508   -1223.6611    378.69107   -3325.8771 
 6375000    235.39557   -3983.1309   -3579.6709   -3983.1309            0    2602.6831    17.686683    20.832577    21.577712    7950.5063    2719.7503    2045.0918    3043.2071    -143.2188   -2479.6484   -371.55939   -3277.8899 
 6376000    231.80543   -4011.0414   -3613.7349   -4011.0414            0    3252.5599    17.694704    20.842024    21.587498    7961.3276    3074.9585    2559.1531     4123.568    1045.2924   -384.16848   -151.32298   -3236.0873 
 6377000    232.05768   -4006.0247   -3608.2858   -4006.0247            0    3666.1546    17.672471    20.815837    21.560374     7931.356    3225.0337    3333.3461     4440.084   -649.47658    40.372304   -380.36618   -3184.2191 
 6378000    227.99065   -4009.7707   -3619.0026   -4009.7707            0    606.47062    17.800683    20.966853    21.716791    8105.2342   -1544.7715    1610.6715    1753.5119     149.9184    1034.8661    415.75971   -3547.3138 
 6379000     234.5982   -4002.7853   -3600.6921   -4002.7853            0     1818.598    17.665709    20.807871    21.552123    7922.2542    936.24699    2602.8872    1916.6598   -1473.4073    297.28394    190.41289    -3390.575 
 6380000    213.54449   -4018.4479     -3652.44   -4018.4479            0     2689.369    17.654516    20.794688    21.538468    7907.2056    2224.7776    3492.8542    2350.4751   -1417.5113    -1451.492   -469.42864    -3342.306 
 6381000    211.18502   -4014.6378   -3652.6739   -4014.6378            0    3925.7219    17.525054    20.642199    21.380525    7734.5261    6204.4452     1959.968    3612.7525   -314.50609   -859.91195    189.68788    -3209.852 
 6382000    225.61501   -3967.5565   -3580.8601   -3967.5565            0    2663.3443    17.563255    20.687195     21.42713    7785.2152     1009.129    3068.6193    3912.2846    606.32244     851.2883     147.6993   -3278.4657 
 6383000    216.47237   -3991.1247   -3620.0985   -3991.1247            0    3233.3284    17.544908    20.665585    21.404747    7760.8432    4371.9518    2261.9254    3066.1081   -281.25852   -995.77773    1846.5617   -3254.1377 
 6384000    209.30721   -4000.7942   -3642.0488   -4000.7942            0    1451.8008    17.629622    20.765366    21.508097    7873.8034   -90.117115    1272.0028    3173.5168    111.98582   -491.79567   -1133.0117   -3475.3366 
 6385000    221.21579   -4029.0833    -3649.927   -4029.0833            0     1344.923    17.577011    20.703398    21.443913    7803.5224    2201.3074    942.86741    890.59423   -134.93554   -231.39455    237.27434   -3496.8662 
 6386000    231.57147   -4019.2059   -3622.3003   -4019.2059            0     2712.715    17.627187    20.762497    21.505126    7870.5411    3663.7963    1151.3266     3323.022    395.68371   -1031.0862    2388.5309   -3310.9246 
 6387000    220.76141   -4005.2415    -3626.864   -4005.2415            0    3808.4573    17.566156    20.690611    21.430669    7789.0734    3694.8481    3851.2197    3879.3041    570.28059   -395.03953    224.08898   -3194.2398 
 6388000    238.99249   -4010.4406   -3600.8157   -4010.4406            0    4031.3967    17.638764    20.776134    21.519251     7886.059    4054.1224    3731.8645    4308.2033    210.56073    291.01411    691.56628   -3137.1644 
 6389000    208.50012   -4008.3865   -3651.0244   -4008.3865            0    2869.3252    17.618537     20.75231    21.494574     7858.961    3171.9864    2157.5098    3278.4794   -348.24834   -656.49869    1717.6706    -3322.157 
 6390000    218.00223   -4001.7843    -3628.136   -4001.7843            0    3709.3273    17.681825    20.826854    21.571785     7943.956    3659.6303    4196.0064    3272.3451    322.06383    773.53997    287.84846   -3198.3939 
 6391000    216.13285   -4025.8915   -3655.4472   -4025.8915            0    2353.8711    17.706999    20.856505    21.602497    7977.9341      2149.64    3916.7572    995.21623   -412.72361   -756.82054   -87.177337   -3381.5743 
 6392000    215.80349   -4018.5035   -3648.6237   -4018.5035            0    2662.7774    17.706591    20.856025       21.602    7977.3831    2271.7006    4517.9591    1198.6725     657.5749    701.40194   -222.41222    -3338.831 
 6393000    211.20361   -4024.0039   -3662.0081   -4024.0039            0    3508.1414    17.741685    20.897361    21.644814      8024.91    4796.8412    3858.5051    1869.0777    17.100444   -460.86278   -763.03443   -3251.4325 
 6394000    218.27978   -4004.2306   -3630.1065   -4004.2306            0    2212.4253    17.708069    20.857766    21.603802    7979.3805      3445.26    1505.1962    1686.8197   -1342.4254    21.528089    561.09197   -3372.6442 
 6395000     233.8738   -4009.0798   -3608.2281   -4009.0798            0    2342.8381    17.751543    20.908973    21.656842    8038.2951     2725.035    1556.6069    2746.8725   -103.18684   -569.24393   -18.936236   -3333.5765 
 6396000     219.2126   -4014.5206   -3638.7978   -4014.5206            0    1114.9457    17.789592    20.953789     21.70326    8090.0933    1281.0529    1483.6731    580.11121    1373.9601   -483.81009    673.04865   -3507.2501 
 6397000    210.92134   -4013.6522   -3652.1402   -4013.6522            0    3891.2677    17.677785    20.822096    21.566857     7938.513    5541.7091    2706.3867    3425.7073     303.6755   -101.59876   -1215.6144   -3201.6284 
 6398000     220.9063   -4048.0321   -3669.4062   -4048.0321            0    2185.0694    17.690841    20.837473    21.582784     7956.114    1733.2224    2668.3853    2153.6004     -325.461     521.8775    426.06996   -3415.8688 
 6399000    242.53992   -4020.4521    -3604.747   -4020.4521            0    1516.8611    17.797735    20.963381    21.713195    8101.2082    1854.8052    1262.0742    1433.7038    1395.4934   -464.32526    485.53101   -3425.5332 
 6400000    226.03036   -4020.7232   -3633.3149   -4020.7232            0    1681.1612    17.782949    20.945965    21.695156    8081.0336    1573.4431    2128.6474    1341.3931   -257.48395    332.29867   -85.291524    -3435.184 
 6401000    230.98735   -3994.2557   -3598.3513   -3994.2557            0    3189.6067    17.684355    20.829835    21.574872    7947.3673    4095.8832    2227.4128    3245.5242   -1104.1792   -489.68425     536.0393   -3228.6625 
 6402000    220.18097   -4024.7408   -3647.3582   -4024.7408            0     1252.745     17.77286    20.934082    21.682848    8067.2884    1776.2827    -3.476962    1985.4291    448.84393     215.7194    635.89561   -3499.9688 
 6403000    237.30237   -4031.0274   -3624.2993   -4031.0274            0    2663.3641    17.631577    20.767669    21.510483    7876.4242    2671.4746    1236.7776      4081.84    530.61739   -391.31154    938.20853   -3318.3598 
 6404000    208.41066   -4003.1372   -3645.9284   -4003.1372            0    4001.3542    17.654257    20.794383    21.538152    7906.8575    3211.1698    4342.9554    4449.9374    1673.8685     777.5922    882.24891   -3184.5187 
 6405000    214.47048   -4010.2244   -3642.6293   -4010.2244            0    2207.9324    17.686901    20.832834    21.577978    7950.8004    3543.1756    1066.9616      2013.66   -386.75978    491.20853    571.30417   -3386.6101 
 6406000    220.00578   -4047.1771   -3670.0947   -4047.1771            0     1863.466    17.735695    20.890306    21.637506    8016.7842    2130.3519    876.82777    2583.2183   -1015.7121    40.270133    322.88811   -3452.2247 
 6407000    225.99276   -4021.5493   -3634.2055   -4021.5493            0     2850.061      17.6729    20.816342    21.560896     7931.933    2547.8285    2829.3033    3173.0513    -283.5118    585.12823   -32.366713   -3304.5129 
 6408000    225.63235   -4022.7212   -3635.9951   -4022.7212            0    3046.2417    17.710718    20.860887    21.607035    7982.9632    2260.1291    1842.1146    5036.4814    1312.8168    727.89703   -476.76496   -3281.3415 
 6409000    222.40237   -4017.9171   -3636.7271   -4017.9171            0    1555.9191    17.723853    20.876358    21.623059    8000.7375    2068.6599   -785.92772     3385.025   -484.68518    1476.0538   -386.91069   -3455.1785 
 6410000    233.75486   -3995.0166   -3594.3688   -3995.0166            0    2821.1431     17.65466    20.794858    21.538644    7907.3994    2354.0304    2919.7693    3189.6295   -395.73832    255.03382    910.67692   -3269.0309 
 6411000    217.47954   -4013.4475    -3640.695   -4013.4475            0    2570.5077    17.621772    20.756119     21.49852    7863.2902    4296.3676    2154.1525    1261.0029    113.76616    -1603.297    621.64159   -3345.9143 
 6412000    218.25146   -4022.6455     -3648.57   -4022.6455            0    2032.9819    17.683716    20.829082    21.574093     7946.506    1506.6595    3143.7044    1448.5817   -580.04191   -66.889981   -658.00441   -3412.9644 
 6413000    226.39663   -4013.2894   -3625.2534   -4013.2894            0    3070.8977    17.599001    20.729298     21.47074    7832.8463    3824.3626    2479.9412    2908.3894   -825.80723   -223.46856   -1104.3477   -3274.4523 
 6414000    227.59752   -4009.5233   -3619.4289   -4009.5233            0    1920.9522    17.623909    20.758637    21.501128     7866.152    2373.7404    1724.0738    1665.0425    -677.5942    305.81785   -1144.7485   -3399.0577 
 6415000    225.11065   -3996.3243   -3610.4924   -3996.3243            0    2898.7813    17.648806    20.787963    21.531502    7899.5362    3002.3772    2863.7725    2830.1943    438.49344    346.12895    516.11424   -3276.5335 
 6416000    225.31272   -3978.5152   -3592.3369   -3978.5152            0    2842.7705    17.661161    20.802515    21.546576    7916.1382     2316.926    4495.4884     1715.897   -1289.3933    498.44724    15.962463   -3264.1426 
 6417000    215.66967   -4008.2238   -3638.5733   -4008.2238            0     1135.019    17.692674    20.839633    21.585021    7958.5876    1173.5521    960.76818    1270.7367   -518.95514    923.48766    264.42661   -3506.8342 
 6418000    235.47218   -3979.7743    -3576.183   -3979.7743            0    3690.3894    17.655454    20.795792    21.539612    7908.4656    4570.4424    2430.1955    4070.5302   -1412.5013    104.28488    216.61263   -3150.5451 
 6419000    230.28056   -3968.2099    -3573.517   -3968.2099            0    2498.3679     17.61399    20.746953    21.489027    7852.8774    1554.5675    2860.2571     3080.279   -303.48274    506.51379     -894.558   -3287.3885 
 6420000     226.5903   -4004.3902   -3616.0222   -4004.3902            0    1521.7352    17.734327    20.888694    21.635837    8014.9295    1638.9008    1363.0071    1563.2977   -658.55387   -827.01846    821.95194   -3438.1473 
 6421000    222.92789   -3998.8063   -3616.7155   -3998.8063            0     786.2431    17.639502    20.777004    21.520152    7887.0497   -1328.8746    1247.2064    2440.3974    494.98986   -557.24514    109.08941   -3526.2782 
 6422000    225.92983   -4020.1675   -3632.9315   -4020.1675            0    2644.5854    17.646678    20.785456    21.528906    7896.6791    1557.1539    2368.5123    4008.0902    826.25959    93.775213   -326.45909   -3328.3679 
 6423000    224.69273   -4027.2398   -3642.1242   -4027.2398            0    2636.1607    17.592214    20.721304     21.46246    7823.7879    1467.6801    2280.6145    4160.1875   -1352.9194   -948.07311   -130.18512   -3341.3332 
 6424000    215.97344    -4027.617   -3657.4459    -4027.617            0    2250.9008    17.586273    20.714307    21.455212    7815.8645    3193.1793    1524.1221    2035.4011   -1377.6349   -156.23065    423.54501   -3400.8739 
 6425000     239.0256   -4020.8119   -3611.1302   -4020.8119            0    4103.9903    17.530834    20.649007    21.387577    7742.1814    3870.3425     4802.095    3639.5334   -1310.6621   -1021.6094    27.956677   -3147.7414 
 6426000    227.79627   -4030.1667   -3639.7317   -4030.1667            0    1693.0275    17.514931    20.630275    21.368175    7721.1304    326.88024    913.21397    3838.9884    849.80242    963.68853   -775.31736   -3449.0887 
 6427000    237.69119   -4002.2638   -3594.8692   -4002.2638            0    1372.3507    17.559146    20.682354    21.422117    7779.7518    1186.6018    2193.4503     736.9999    448.02872    527.18424    1451.8163   -3439.1627 
 6428000    220.78074   -3980.9817   -3602.5711   -3980.9817            0    2873.6095    17.562267     20.68603    21.425924    7783.9006    2160.7479     2063.698    4396.3826    382.12635   -969.27121   -515.29627   -3276.3584 
 6429000    227.23341    -4003.193   -3613.7227    -4003.193            0    2531.4627     17.58851    20.716942    21.457941    7818.8476    1081.5462     2819.618     3693.224   -1145.5942   -320.30633   -81.332569   -3325.0603 
 6430000    216.20462   -3997.8208   -3627.2535   -3997.8208            0    2675.5586    17.593349    20.722641    21.463844     7825.302      3250.68    437.08468    4338.9112    85.489128    347.87344   -281.33339    -3321.908 
 6431000    226.01124   -4025.0807   -3637.7051   -4025.0807            0    2705.5121    17.576677    20.703004    21.443505    7803.0769    2612.9775    1596.3263    3907.2325    226.53313   -1482.1947    -530.8723   -3329.8182 
 6432000    239.19879   -4029.4008   -3619.4222   -4029.4008            0    3535.4568    17.608953    20.741021    21.482882    7846.1427    3859.0713    2112.9275    4634.3716    297.36378   -412.03697    1178.2229   -3214.8672 
 6433000       225.88   -4043.6219   -3656.4713   -4043.6219            0    2540.0932    17.541669    20.661769    21.400795    7756.5446    1974.2112    3921.7101    1724.3584   -564.11403    1563.4989   -635.66167   -3369.1328 
 6434000    215.86795   -4023.6937   -3653.7034   -4023.6937            0    2998.2209    17.530184    20.648241    21.386783    7741.3196    1354.4722    3297.9566    4342.2338   -752.52829   -543.28885     208.8503   -3315.2067 
 6435000       225.83    -3996.495   -3609.4301    -3996.495            0    2488.1921    17.569403    20.694436     21.43463    7793.3933    1094.7367    3715.5453    2654.2943    -751.8983    350.48282    1001.9438   -3326.6256 
 6436000    225.25751   -3999.5248   -3613.4411   -3999.5248            0    1810.9598    17.676323    20.820374    21.565073    7936.5435    3066.4059    465.20659     1901.267   -611.17203   -21.397955   -1199.1967   -3403.8291 
 6437000    220.52047    -4027.397   -3649.4324    -4027.397            0    3185.6098    17.587609    20.715881    21.456842    7817.6464    2945.5913    2929.0607    3682.1775   -321.27465    325.80059    149.63052   -3286.2335 
 6438000    228.40074    -3996.168   -3604.6969    -3996.168            0    1114.2419    17.567418    20.692097    21.432208    7790.7517    755.44488    853.67152    1733.6093   -29.487757    551.17684     495.0384   -3478.0966 
 6439000    217.33389   -4032.0682   -3659.5653   -4032.0682            0     3565.229    17.495099    20.606916     21.34398    7694.9321    3464.4449    3365.8631    3865.3789    643.90097   -909.37817      125.651   -3259.4657 
 6440000    218.12004   -3972.3785   -3598.5282   -3972.3785            0    1811.6408    17.679532    20.824153    21.568988    7940.8663    2846.0255    974.40501     1614.492    1890.4244    174.68655    626.87778   -3388.7231 
 6441000    214.55756   -3997.4125   -3629.6682   -3997.4125            0    1637.3125    17.633661    20.770123    21.513025    7879.2162    2141.9282    1391.2266    1378.7826    610.00713    411.39008    546.22927   -3441.5241 
 6442000    229.00893   -4018.2181   -3625.7046   -4018.2181            0    4035.2162     17.56903    20.693996    21.434175    7792.8966    5087.0129    4426.4707    2592.1651   -442.43704    288.28708     -1522.63   -3167.0966 
 6443000    226.21895   -4033.5553   -3645.8238   -4033.5553            0     1185.891    17.643621    20.781855    21.525177    7892.5761    1918.3119   -305.40236    1944.7633   -20.337491   -232.90975   -606.02772   -3509.3216 
 6444000    224.80884   -3990.9911   -3605.6764   -3990.9911            0    2269.1467    17.613568    20.746457    21.488512    7852.3136    706.02882    2294.8317    3806.5796    663.42153   -79.112857   -313.91977   -3345.8184 
 6445000    215.72731   -4020.2097   -3650.4604   -4020.2097            0    1685.5054    17.627601    20.762985    21.505632     7871.096    1856.6806    2389.0112    810.82434    548.31009   -103.26637   -201.42304   -3456.9781 
 6446000    222.28479   -4011.7224   -3630.7338   -4011.7224            0    1522.1448    17.603795    20.734945    21.476589    7839.2496    870.27027    2736.8637    959.30059    138.78798   -1687.9162   -54.261021    -3456.711 
 6447000    218.04247   -3999.3528   -3625.6355   -3999.3528            0    1569.0479    17.613233    20.746063    21.488104    7851.8657   -885.94751    2951.9572     2641.134    746.82811    934.71108   -630.95126   -3445.9616 
 6448000     224.5393   -3999.6555   -3614.8028   -3999.6555            0    1178.7315    17.628393    20.763918    21.506598    7872.1566     2802.992    796.48222   -63.279598   -288.43413    -679.5473   -680.23306   -3479.4758 
 6449000    235.09677   -4011.8723   -3608.9244   -4011.8723            0    1524.0084    17.651368     20.79098    21.534628    7902.9772    3348.4716    1238.8798   -15.326192    506.98013    92.700499    228.58339   -3433.2721 
 6450000    226.48944   -4020.2275   -3632.0324   -4020.2275            0    2892.2908    17.555416    20.677961    21.417567    7774.7957     4626.821    2795.3943     1254.657    237.51164   -195.15741   -1211.3239    -3304.083 
 6451000    220.62183   -3986.9935   -3608.8552   -3986.9935            0    2219.6646    17.561601    20.685246    21.425112    7783.0151    2806.7496    2446.7666    1405.4776   -236.35017    764.90844    188.95168   -3356.9071 
 6452000    226.80525     -3988.11   -3599.3736     -3988.11            0    3316.1746    17.529075    20.646935     21.38543    7739.8504    4946.0664    2013.7531    2988.7043   -685.09438     1497.667   -979.71857   -3225.0511 
 6453000    221.23619   -4018.8609   -3639.6696   -4018.8609            0     2668.562    17.550127    20.671731    21.411114    7767.7702    3127.4699    2409.8109    2468.4052   -252.91622   -1029.9235   -1013.1836   -3337.3617 
 6454000    219.48424   -4008.5261   -3632.3377   -4008.5261            0    1600.8552     17.57436    20.700275    21.440679    7799.9923    1789.9103    353.97063    2658.6845    1583.8288    62.212202   -1448.9907   -3450.2326 
 6455000     210.4328   -4012.2638   -3651.5892   -4012.2638            0    1432.7344    17.585255    20.713107     21.45397    7814.5069    1479.3201    1037.8588    1781.0243   -216.56203    834.52933   -488.20976   -3488.3054 
 6456000    213.16132   -4004.0098   -3638.6586   -4004.0098            0    2491.5801    17.537626    20.657007    21.395863    7751.1839    3996.9977    934.43991    2543.3027    1376.4002    748.79188      450.139   -3357.0027 
 6457000    220.68324   -4001.7956   -3623.5521   -4001.7956            0    2460.6248     17.45022    20.554055    21.289228    7635.8666    3052.8095    1585.2598     2743.805    37.139717    574.98675   -1654.9524   -3349.5338 
 6458000    222.58362    -3979.353   -3597.8523    -3979.353            0    3743.8334    17.477257      20.5859    21.322212    7671.4134    2661.4115    4078.8499    4491.2388   -595.31291   -1446.9025   -499.78842   -3178.9933 
 6459000    232.31815   -4017.1619   -3618.9765   -4017.1619            0    3487.7881    17.628453     20.76399    21.506672    7872.2381    4369.4326    3158.9093    2935.0224   -525.34031     467.6242   -550.83489   -3218.5487 
 6460000    237.25742   -4011.8828   -3605.2317   -4011.8828            0    2818.8524     17.55035    20.671994    21.411386     7768.066    2908.4946    2113.2262    3434.8365    159.07046    769.13121    1013.3741    -3285.886 
 6461000    230.76725   -4030.5671     -3635.04   -4030.5671            0    1820.0849    17.538287    20.657786    21.396669    7752.0598    3897.5227    950.20367    612.52822   -27.491472    150.45185    741.46574   -3429.2687 
 6462000    224.59029   -4004.4737   -3619.5336   -4004.4737            0     1304.575    17.544321    20.664893    21.404031    7760.0639     1957.031    196.72987     1759.964    48.376672    476.62855    797.42449   -3471.8915 
 6463000    234.50047   -4020.9694   -3619.0436   -4020.9694            0    2456.2465    17.523981    20.640935    21.379216    7733.1053    3213.3464    801.10696    3354.2861   -585.39267    -641.4531   -685.70261   -3342.0296 
 6464000    216.78706   -4018.3846    -3646.819   -4018.3846            0    1666.1323    17.615563    20.748807    21.490946     7854.982    1795.7412    1480.2371    1722.4186    60.851394   -896.08771    1014.5873   -3455.9521 
 6465000    214.52003   -4045.4926   -3677.8126   -4045.4926            0    2206.6086    17.544541    20.665152      21.4043    7760.3562    3365.4818    998.37366    2255.9703    1428.4358    142.36373    26.573668   -3428.0756 
 6466000    230.54531   -4047.3468      -3652.2   -4047.3468            0    1951.1447    17.542417     20.66265    21.401708    7757.5377    1447.6678    1379.5558    3026.2104    933.03747   -615.28198   -655.47595   -3431.4558 
 6467000    227.13845   -4050.5727   -3661.2652   -4050.5727            0    1995.0878    17.535978    20.655065    21.393852    7748.9978    1395.9447    1744.8615    2844.4572    125.81286    47.782101   -922.82297   -3435.7979 
 6468000    223.08417   -4022.3905   -3640.0318   -4022.3905            0    2150.5472    17.526209    20.643559    21.381934    7736.0553    1997.1072    3138.1609    1316.3736   -93.630965   -81.599015    926.89578   -3397.4019 
 6469000    228.81973   -4014.8548   -3622.6657   -4014.8548            0    890.44159    17.554466    20.676842    21.416407    7773.5327    962.49941    2158.8313   -450.00599     702.6754   -649.57796   -1123.3135   -3521.7172 
 6470000    218.37347   -4046.5703   -3672.2857   -4046.5703            0    2094.2151    17.513595    20.628702    21.366545    7719.3636    1739.7437    1606.5128    2936.3887    161.37968   -510.50424   -152.55293    -3436.521 
 6471000    224.27797   -4041.6419   -3657.2371   -4041.6419            0    2247.5138    17.547371    20.668485    21.407752    7764.1114    1316.6394    1940.8447    3485.0573   -449.14977   -543.74743    1122.0169   -3402.7475 
 6472000    228.62432   -4071.1574   -3679.3031   -4071.1574            0    741.99554    17.562608    20.686432     21.42634    7784.3543    1235.5447    1509.1659   -518.72395    326.12524   -849.46739    994.91218   -3595.0667 
 6473000    223.70521   -4056.3891   -3672.9661   -4056.3891            0    2287.8252    17.529144    20.647016    21.385514    7739.9418    2573.7159     2390.571    1899.1887    1422.2291    646.88502    1626.6088   -3414.7184 
 6474000    226.70911   -4045.2347    -3656.663   -4045.2347            0    2201.3523    17.572632     20.69824     21.43857    7797.6915     3605.659    1009.7792    1988.6186    1205.7399    720.05755   -154.91512   -3406.3223 
 6475000    220.54741   -4051.5924   -3673.5817   -4051.5924            0    3598.9628    17.522725    20.639456    21.377684    7731.4428    4498.1823    1855.8487    4442.8575     563.6456    -809.3382   -304.97132   -3267.7801 
 6476000    214.43153   -4009.6077   -3642.0794   -4009.6077            0    5028.6934    17.513824    20.628971    21.366824    7719.6663     4904.461    6037.9058    4143.7135   -22.914813    704.73622    1432.9197   -3075.9319 
 6477000    241.68124   -4002.6853   -3588.4519   -4002.6853            0    1760.9006    17.579296    20.706089      21.4467    7806.5662    1973.3544     2415.617    893.73046     165.0408   -668.41317    533.96725    -3387.972 
 6478000    228.34201   -3999.3276   -3607.9572   -3999.3276            0    4173.9673    17.496454    20.608512    21.345634    7696.7209    4152.5891    3660.6718     4708.641    25.348066    510.51722   -45.410152   -3139.4345 
 6479000     228.7361    -4016.581   -3624.5351    -4016.581            0    3094.1688    17.536637    20.655842    21.394657    7749.8724    3198.1544    2919.1057    3165.2464    398.84245    1287.9019     809.8491     -3274.82 
 6480000    224.30163   -3993.0055   -3608.5602   -3993.0055            0    2362.5128    17.558683    20.681809    21.421552    7779.1367    1304.1821    3367.3768    2415.9795    578.35333    358.78134   -806.29473   -3340.5314 
 6481000    227.46764   -4019.1313   -3629.2595   -4019.1313            0    2485.6725     17.53848    20.658013    21.396905    7752.3159    1999.0626    1975.5598    3482.3952   -325.89397   -385.47059    667.25132   -3348.2304 
 6482000    216.17625   -4005.0646   -3634.5459   -4005.0646            0    2815.9842     17.48145    20.590839    21.327329    7676.9368    1278.7187    2947.9884    4221.2455    741.44489   -278.21618   -134.02179   -3319.2676 
 6483000    224.19592   -4033.1372   -3648.8731   -4033.1372            0    2091.3656    17.527378    20.644936     21.38336    7737.6034    3003.0677     2205.023     1066.006    703.83685   -2382.2315    726.52176   -3412.8729 
 6484000    228.48225   -4013.1738   -3621.5631   -4013.1738            0    772.63491    17.621895    20.756265    21.498671    7863.4556    1493.3718     533.5306    291.00239    133.14643    28.658845    313.62882    -3532.957 
 6485000    223.26975   -4047.0638   -3664.3871   -4047.0638            0    2623.6736    17.593194    20.722458    21.463655    7825.0956    2282.0525     3671.108    1917.8602    287.02562    863.62277   -397.34904   -3364.9709 
 6486000     219.0375   -4036.4826   -3661.0598   -4036.4826            0    2606.7672    17.535869    20.654938    21.393719     7748.854    2868.9004    2501.4728    2449.9284   -819.46979   -905.98336   -698.36564   -3366.4714 
 6487000     232.8783   -4046.9568   -3647.8114   -4046.9568            0    918.42206    17.631783    20.767911    21.510734    7876.6993    782.83015    1448.6601    523.77588   -1074.8883   -894.17179   -454.06495   -3542.3089 
 6488000    230.02833   -4037.8409   -3643.5802   -4037.8409            0     2640.422    17.582735    20.710139    21.450896    7811.1484    3049.2372    2621.0259     2251.003     366.7804   -92.875843    829.54369   -3342.7897 
 6489000    219.79204   -4008.7556   -3632.0396   -4008.7556            0     1832.128    17.565586     20.68994    21.429973    7788.3145    1332.0411    1063.9791    3100.3637   -164.37301     26.20433   -1297.0983   -3423.9381 
 6490000    230.59995    -4044.843   -3649.6026    -4044.843            0    3209.7401    17.536821    20.656059    21.394881    7750.1164    3091.3602    3578.4002    2959.4598    91.530353    318.66239   -1220.3822   -3286.8137 
 6491000    210.39231    -4045.453   -3684.8478    -4045.453            0    2514.0791    17.581574    20.708772    21.449479    7809.6014     2495.022    2872.6087    2174.6065   -833.92314    -17.13966   -1057.8293   -3398.5067 
 6492000    230.42633    -4050.468   -3655.5252    -4050.468            0    2422.6542    17.554911    20.677366     21.41695    7774.1241    2455.3257    2719.6958    2092.9411   -848.18892   -309.13002    307.37089   -3380.8504 
 6493000    236.30262   -4031.5772   -3626.5625   -4031.5772            0    3453.9577      17.4969    20.609038    21.346178    7697.3095    3292.7849    3800.3818    3268.7064   -295.46868    34.723358   -110.78661   -3238.8304 
 6494000      232.104   -4042.2443   -3644.4259   -4042.2443            0    3035.0337    17.523858     20.64079    21.379066    7732.9422    2988.2382    2825.8867    3290.9763   -151.05459    318.93248    416.75809   -3302.1439 
 6495000     230.8907   -4014.9734   -3619.2347   -4014.9734            0    2366.3767    17.554317    20.676667    21.416226    7773.3356    1239.3149    3456.5283    2403.2868   -1258.4584   -267.29258   -60.205578   -3350.9677 
 6496000    226.47875   -4036.3054   -3648.1286   -4036.3054            0    2743.3924    17.484372     20.59428    21.330892    7680.7861     2556.543    3169.9032     2503.731    77.314224   -140.52564   -1322.1875   -3340.8237 
 6497000    214.47291    -4023.716   -3656.1167    -4023.716            0    2189.1029    17.541537    20.661613    21.400634      7756.37    1620.1285    3098.8026    1848.3777   -1228.8081   -1055.7878   -77.072706   -3408.4883 
 6498000    229.29842   -4025.8938   -3632.8841   -4025.8938            0    2618.2955    17.529711    20.647684    21.386206    7740.6931    1753.9651    4808.4509    1292.4705    672.64984   -503.62042    406.77736   -3337.3046 
 6499000    213.42108   -4026.2164     -3660.42   -4026.2164            0    2353.2953    17.503589    20.616916    21.354338    7706.1408    3510.3623    2798.2901    751.23364    308.61925   -825.43281   -644.93383   -3395.9422 
 6500000    234.85753   -4003.0861   -3600.5483   -4003.0861            0    1170.5999    17.521959    20.638553    21.376749    7730.4283    991.38544    1656.1364    864.27786    463.11688   -1503.9453    294.13311   -3468.5745 
Loop time of 444.891 on 64 procs for 250000 steps with 864 atoms

Performance: 97.102 ns/day, 0.247 hours/ns, 561.935 timesteps/s
99.0% CPU use with 64 MPI tasks x 1 OpenMP threads

MPI task timing breakdown:
Section |  min time  |  avg time  |  max time  |%varavg| %total
---------------------------------------------------------------
Pair    | 18.677     | 24.057     | 29.776     |  51.7 |  5.41
Bond    | 0.27557    | 0.28369    | 0.29344    |   0.8 |  0.06
Kspace  | 202.15     | 210.76     | 220.61     |  27.8 | 47.37
Neigh   | 3.4803     | 3.8763     | 4.5836     |  15.1 |  0.87
Comm    | 84.626     | 93.895     | 99.824     |  38.2 | 21.11
Output  | 1.8168     | 1.8178     | 1.8302     |   0.1 |  0.41
Modify  | 99.623     | 102.2      | 106.13     |  14.8 | 22.97
Other   |            | 7.999      |            |       |  1.80

Nlocal:        13.5000 ave          21 max           9 min
Histogram: 7 5 15 6 9 14 5 2 0 1
Nghost:        2093.42 ave        2153 max        2039 min
Histogram: 2 1 12 8 16 8 7 7 2 1
Neighs:        3992.88 ave        6918 max        2340 min
Histogram: 2 11 15 9 13 8 4 1 0 1

Total # of neighbors = 255544
Ave neighs/atom = 295.76852
Ave special neighs/atom = 2.0000000
Neighbor list builds = 9366
Dangerous builds = 0

unfix		3
unfix		2
unfix		1

write_data	data.final.${pid}
write_data	data.final.0
System init for write_data ...
PPPM initialization ...
  extracting TIP4P info from pair style
  using 12-bit tables for long-range coulomb (../kspace.cpp:340)
  G vector (1/distance) = 0.373208
  grid = 24 24 25
  stencil order = 5
  estimated absolute RMS force accuracy = 0.003190764
  estimated relative force accuracy = 9.608891e-06
  using double precision FFTW3
  3d grid and FFT values/proc = 2730 288
Last active /omp style is kspace_style pppm/tip4p/omp
WARNING: Not all mixed pair coeffs generated from mixing. Use write_data with 'pair ij' option to store all pair coeffs. (../write_data.cpp:312)

write_restart   restart.lmp.${pid}
write_restart   restart.lmp.0
System init for write_restart ...
PPPM initialization ...
  extracting TIP4P info from pair style
  using 12-bit tables for long-range coulomb (../kspace.cpp:340)
  G vector (1/distance) = 0.373208
  grid = 24 24 25
  stencil order = 5
  estimated absolute RMS force accuracy = 0.003190764
  estimated relative force accuracy = 9.608891e-06
  using double precision FFTW3
  3d grid and FFT values/proc = 2730 288
Last active /omp style is kspace_style pppm/tip4p/omp
Total wall time: 0:07:26
