LAMMPS data file via write_data, version 30 Jul 2021, timestep = 27000000

864 atoms
2 atom types
576 bonds
1 bond types
288 angles
1 angle types

0.5721116767563643 17.635460723245558 xlo xhi
1.765403255469101 21.86377454452687 ylo yhi
0.6979749093400383 21.51522089066719 zlo zhi

Masses

1 1.00794
2 15.9994

Pair Coeffs # lj/cut/tip4p/long/omp

1 0 0
2 0.21084 3.1668

Bond Coeffs # harmonic/omp

1 450 0.9572

Angle Coeffs # harmonic/omp

1 55 104.52

Atoms # full

651 1 1 0.5897 1.927680772429878 4.797730086904687 2.025369929382613 0 -2 -2
799 1 2 -1.1794 0.5894924824373781 3.7152560401671035 4.5098322358702845 -2 -1 6
116 1 1 0.5897 3.715222724257731 2.8715275465718975 3.1184543273166523 -1 -3 2
275 1 1 0.5897 4.313388016114976 4.210638375441524 1.390312581197568 -3 3 -1
89 1 1 0.5897 1.2037428300375566 6.454968183869561 2.782904464926104 7 -4 3
570 1 1 0.5897 2.217007964177553 6.139102463579705 4.699967972942224 5 1 -2
649 1 2 -1.1794 2.4334309670219074 4.006865037442245 2.212417086247731 0 -2 -2
88 1 2 -1.1794 1.0322189805923376 6.255832877072738 1.8624894648526673 7 -4 3
650 1 1 0.5897 1.9898937474380438 3.3162732133458186 1.719855448192021 0 -2 -2
117 1 1 0.5897 4.16272036219542 2.2384543663488494 4.418784767951408 -1 -3 2
115 1 2 -1.1794 4.471544783505804 2.465114071779427 3.5415821486352885 -1 -3 2
800 1 1 0.5897 1.257897428171828 3.644010827241929 3.828353046725192 -2 -1 6
801 1 1 0.5897 0.6568845964132635 2.895068034132775 4.998744434267028 -2 -1 6
300 1 1 0.5897 3.819592719496568 2.0407721008333537 9.099015031247454 -4 0 0
298 1 2 -1.1794 4.138031757780877 2.911484127968508 9.337218281801523 -4 0 0
323 1 1 0.5897 1.1985136602192008 3.984743695504099 10.465982416098718 7 0 -3
401 1 1 0.5897 0.8500844323481163 4.745340505630933 8.168012436086261 -6 3 7
324 1 1 0.5897 1.9729308092615605 5.250118806648617 10.164276925988784 7 0 -3
860 1 1 0.5897 1.8638891419852224 5.006247779730968 6.285219262862161 -1 -2 4
322 1 2 -1.1794 1.5741251536936076 4.488299537456596 9.743772296614862 7 0 -3
299 1 1 0.5897 3.3448375483195125 3.4159303353180377 9.517911418500614 -4 0 0
333 1 1 0.5897 2.752541415711853 1.881223310164131 6.008615551910899 -2 0 -3
861 1 1 0.5897 3.230918042671859 5.607187070121794 6.5342737473401495 -1 -2 4
332 1 1 0.5897 3.325509348969835 3.2784187772388353 6.115649031779291 -2 0 -3
859 1 2 -1.1794 2.755785515641882 5.028008623945344 5.938403820921761 -1 -2 4
331 1 2 -1.1794 3.5800431764651295 2.35617144133398 6.085406567214411 -2 0 -3
744 1 1 0.5897 0.7800277157038016 6.788539320487139 8.088714948044629 2 -1 3
423 1 1 0.5897 4.761546506734465 6.006624753495726 8.851554773864905 -5 4 8
761 1 1 0.5897 1.7122423197029446 3.8575816042551905 12.312613068111776 -1 -5 2
701 1 1 0.5897 3.3546661847091808 5.898562447937437 11.60214238549456 5 -1 4
436 1 2 -1.1794 2.48891839729545 5.395524609793586 13.687116041548926 -4 9 3
438 1 1 0.5897 3.4218894519069383 5.609107963891351 13.70051071089872 -4 9 3
760 1 2 -1.1794 0.9215971099779565 3.394434319128913 12.035779896459843 -1 -5 2
577 1 2 -1.1794 2.3349107912557563 3.2420154940313677 15.353026313675336 4 0 -2
579 1 1 0.5897 1.4021385425413033 3.079618614268872 15.212281609584311 4 0 -2
437 1 1 0.5897 2.048256292535931 6.245243360138832 13.681225558113926 -4 9 3
578 1 1 0.5897 2.52779384235783 4.012130059864786 14.818272377326533 4 0 -2
762 1 1 0.5897 0.77402294164366 2.7414361690424265 12.71993126112288 -1 -5 2
788 1 1 0.5897 0.7339222500647384 6.0167549817108625 16.149854554407945 -1 -5 5
20 1 1 0.5897 3.328880918402176 2.1886308192057395 14.36484545795785 -2 -2 -1
460 1 2 -1.1794 4.76969186824129 5.269228555162115 15.464744864921995 3 0 -1
700 1 2 -1.1794 2.8325700960679767 6.542799300399447 11.124009853138089 5 -1 4
756 1 1 0.5897 2.131275432907039 3.2383715632008547 20.647033748116932 -6 -4 1
543 1 1 0.5897 2.7170524307039843 4.440343049296462 19.07390277291664 -6 1 1
43 1 2 -1.1794 3.515086371705544 3.751835989483018 17.732086346929293 0 8 -2
709 1 2 -1.1794 2.3905264702237385 6.345814805492889 16.88784487735765 -6 -1 -2
710 1 1 0.5897 2.5827337878251537 6.601770515084724 17.789954781849097 -6 -1 -2
44 1 1 0.5897 3.356207186908504 3.847610261650379 16.793031958498773 0 8 -2
45 1 1 0.5897 4.455496619857557 3.587079525320857 17.800800877893913 0 8 -2
711 1 1 0.5897 3.234883257891815 6.069137307573578 16.53180316778188 -6 -1 -2
541 1 2 -1.1794 2.479242004110284 4.847302294522335 19.907017536146313 -6 1 1
542 1 1 0.5897 3.276825562634648 5.2927717823968035 20.192806658944022 -6 1 1
754 1 2 -1.1794 2.037526117190583 2.317675706439575 20.891531895398685 -6 -4 1
755 1 1 0.5897 2.933678619305891 2.016917199333666 21.04216405296605 -6 -4 1
480 1 1 0.5897 3.227123058723958 1.983325943339627 17.806733754450917 -3 6 -5
610 1 2 -1.1794 4.831783748030485 6.507182077452673 20.274762770239526 4 5 -2
639 1 1 0.5897 0.6027656292954308 5.037632120347784 19.506966545908142 -6 3 3
573 1 1 0.5897 1.664334688928025 8.127498252199135 5.430439460613211 5 -3 -5
581 1 1 0.5897 1.6422525579448288 8.00970058166877 0.9840570002670177 -4 -6 2
580 1 2 -1.1794 2.0164257637023795 8.882516767090543 1.104138071534822 -4 -6 2
282 1 1 0.5897 4.250116055556558 10.808418683939436 1.3554304192372062 -1 3 1
408 1 1 0.5897 0.8874667128029405 9.583827790100447 4.296495167704351 -3 -4 3
568 1 2 -1.1794 2.0658990258999688 6.963068922014398 4.236842040710432 5 1 -2
681 1 1 0.5897 4.063259541725539 9.639118963115028 5.159549966658097 -6 -7 1
406 1 2 -1.1794 0.7134372678514691 9.971239395229576 3.438671847557728 -3 -4 3
407 1 1 0.5897 0.957893645260423 9.289116888139516 2.8132264983349144 -3 -4 3
42 1 1 0.5897 2.4384721211104434 10.908771251209574 2.723998119629295 3 -4 2
569 1 1 0.5897 2.8735436627060027 7.113945241808803 3.7457102909942908 5 1 -2
679 1 2 -1.1794 4.780650836244747 9.315105512611531 4.614940859237148 -6 -7 1
793 1 2 -1.1794 4.787295478005266 6.921719540070134 3.2752936885874457 -5 0 6
28 1 2 -1.1794 2.9518141100084696 11.611152397393923 5.528414853727132 -9 2 5
40 1 2 -1.1794 3.118619486480635 11.580519403913337 2.7730233665147264 3 -4 2
795 1 1 0.5897 4.782554715270736 7.692727710857367 3.8425300968032357 -5 0 6
30 1 1 0.5897 3.14376398412707 11.59315831473507 4.59078526199673 -9 2 5
281 1 1 0.5897 3.6567144533341347 9.512721758250525 0.844600261335628 -1 3 1
280 1 2 -1.1794 4.3813270785884955 10.121624980619737 0.701725790315038 -1 3 1
520 1 2 -1.1794 1.10356201904291 10.906712465153573 8.835515836486435 -1 -2 1
572 1 1 0.5897 1.252041554038847 8.355834612245179 6.869141087407514 5 -3 -5
405 1 1 0.5897 3.6502282570039686 9.760179860313169 8.517771109054623 5 -2 -2
403 1 2 -1.1794 3.857836178193508 9.709640918438707 7.584721170468817 5 -2 -2
404 1 1 0.5897 3.120292745645141 10.138937209659076 7.151164175609525 5 -2 -2
647 1 1 0.5897 3.7671956379677134 9.53231108348707 11.011850912249274 -9 -3 3
648 1 1 0.5897 3.0588921353637533 8.350805696917954 10.383941706674149 -9 -3 3
521 1 1 0.5897 1.3898723295727693 10.074654607704769 9.212273044550592 -1 -2 1
646 1 2 -1.1794 3.1977266572876752 9.292268249625668 10.28088045894028 -9 -3 3
675 1 1 0.5897 3.830157944873206 7.836789923188221 7.396123683512495 -2 -2 -6
673 1 2 -1.1794 4.213209984048322 6.963200868860931 7.316450697519014 -2 -2 -6
571 1 2 -1.1794 1.3083198968743053 8.792857558487079 6.019352202169674 5 -3 -5
742 1 2 -1.1794 1.0154776098757834 7.676487242388025 8.3576934626861 2 -1 3
522 1 1 0.5897 0.7708448286133813 10.6756131168251 7.968261913741224 -1 -2 1
160 1 2 -1.1794 1.721898254464403 8.109155618031352 13.30748784920956 1 5 1
393 1 1 0.5897 4.003123643624729 11.378018610227278 12.94213431841627 1 -3 -1
162 1 1 0.5897 2.2111204235386666 8.45405714381761 14.054449608155963 1 5 1
185 1 1 0.5897 4.630117872916533 8.828100514792782 13.17392505875781 -1 2 3
601 1 2 -1.1794 2.5935087162960757 9.435552459660688 15.823815672634474 8 4 -1
702 1 1 0.5897 2.257320844869713 6.925040656326144 11.78676159186534 5 -1 4
391 1 2 -1.1794 4.2964122491792756 10.773249345305592 12.260611068716203 1 -3 -1
359 1 1 0.5897 1.9734130246729122 10.948447423624856 11.99994229915241 5 1 -2
602 1 1 0.5897 3.1717223001922132 10.169636747792174 16.031249080712904 8 4 -2
603 1 1 0.5897 2.982569698675491 8.687936089653265 16.27762541748333 8 4 -1
360 1 1 0.5897 1.149916963653995 11.129079372982213 13.25737574834828 5 1 -2
358 1 2 -1.1794 1.1901398339591645 11.384327874904994 12.335713170075735 5 1 -2
392 1 1 0.5897 4.680904117614263 11.336654384274777 11.589058927079659 1 -3 -1
161 1 1 0.5897 0.8197442297352356 8.044284088629695 13.620797935043086 1 5 1
381 1 1 0.5897 0.6342052619857839 8.11308724399564 11.71325750533991 8 3 -3
200 1 1 0.5897 1.2065992467998408 8.060765707332592 18.904368743570842 5 -4 -3
304 1 2 -1.1794 2.939482389772614 8.256702079902844 18.993774499939256 6 -4 -10
305 1 1 0.5897 3.425359956287775 7.711042548628864 19.61216932404691 6 -4 -10
317 1 1 0.5897 3.6790090041071477 10.935693856887967 19.56539256131739 -4 -2 -5
684 1 1 0.5897 1.4481041347198487 10.198112379267265 16.956601801854305 4 0 -10
262 1 2 -1.1794 0.6314880236890011 10.47987996687451 20.19214023429209 -2 -3 4
306 1 1 0.5897 3.5507971787519965 8.404113692773885 18.272059294006873 6 -4 -10
582 1 1 0.5897 1.564386128944974 9.428045150414022 21.277728678334604 -4 -6 1
683 1 1 0.5897 0.9478483916168707 10.477547844264565 18.357888925701843 4 0 -10
445 1 2 -1.1794 3.9335740599120412 11.757184767020691 16.692280266216663 1 2 1
682 1 2 -1.1794 0.7736148986874898 10.67715886611569 17.438080033184313 4 0 -10
447 1 1 0.5897 3.4828385563085593 11.72150908816215 17.535962742537826 2 2 1
723 1 1 0.5897 1.227822523758415 15.714335882791636 4.012149822753097 1 -1 1
41 1 1 0.5897 2.695925757830589 12.374390222866165 2.4453958381199365 3 -4 2
369 1 1 0.5897 0.7004559321942587 13.369372241004509 1.0355168465155136 2 8 -3
721 1 2 -1.1794 2.1520249813020538 15.661189738946819 4.255594216049818 1 -1 1
750 1 1 0.5897 4.141360816840182 15.626824226209363 3.852231664628579 0 3 0
594 1 1 0.5897 2.100779041782004 14.944508276643521 1.8084362521767485 -3 -3 -3
29 1 1 0.5897 2.1216308650132154 12.083035075897628 5.594410121780263 -9 2 5
722 1 1 0.5897 2.142527840587208 15.466222737707568 5.192681059353543 1 -1 1
592 1 2 -1.1794 2.313273169626497 14.08438834757187 1.4460916582313055 -3 -3 -3
119 1 1 0.5897 1.9192264882429968 15.30300980546989 9.805080258655991 -2 -5 -3
118 1 2 -1.1794 1.3418787275576611 15.851822284271142 9.274310116386632 -2 -5 -3
465 1 1 0.5897 4.4778111979577195 12.36004104835945 8.76405200519893 4 1 -2
727 1 2 -1.1794 2.89381210425799 14.053000011245814 10.41040359998928 -1 7 0
364 1 2 -1.1794 2.327087088894063 14.946976916226113 6.877282831541699 -1 2 4
728 1 1 0.5897 3.636354308620228 14.569144179238533 10.096576290793635 -1 7 0
365 1 1 0.5897 2.826305206747629 14.189637611190308 7.18301245288107 -1 2 4
729 1 1 0.5897 2.9257839863552477 13.247810633059508 9.893793126344107 -1 7 0
366 1 1 0.5897 2.096901314970509 15.421135527506387 7.676304903348776 -1 2 4
137 1 1 0.5897 4.239202884249852 16.175801913542728 6.7677240102507215 6 -10 6
463 1 2 -1.1794 3.9732625090415783 12.778790363769927 8.066691389154208 4 1 -2
464 1 1 0.5897 3.8484691894157415 12.089916295125235 7.413919747735017 4 1 -2
136 1 2 -1.1794 4.785362670198472 16.790850717615484 7.257272841367859 6 -10 6
120 1 1 0.5897 0.9187171976804374 16.434809014839516 9.904623935656879 -2 -5 -3
168 1 1 0.5897 1.4677410237195732 13.626117050600257 15.65616517664252 -5 3 2
139 1 2 -1.1794 4.134501168839469 13.508451944203019 13.50993850604785 -3 -1 -1
141 1 1 0.5897 3.6012378083187615 13.619813542884527 14.297000156248405 -3 -1 -1
548 1 1 0.5897 1.3270051247221788 13.6687773157077 12.438966892636778 10 -2 4
166 1 2 -1.1794 2.4247766800377573 13.628077019786081 15.638487783179382 -5 3 2
140 1 1 0.5897 3.769313505064879 14.132199479527435 12.882375497794344 -3 -1 -1
154 1 2 -1.1794 2.7587953321145373 16.161204199373586 13.193221210638429 3 2 -1
156 1 1 0.5897 2.83635859632645 16.65866458233993 12.379109828498235 3 2 -1
155 1 1 0.5897 3.6444279460205258 16.155698752476972 13.556397022095556 3 2 -1
549 1 1 0.5897 1.2386528374301229 15.052601053464628 13.046549131004237 10 -2 4
547 1 2 -1.1794 0.716886391603707 14.270934205088832 12.864881048209108 10 -2 4
167 1 1 0.5897 2.673446650333808 14.370830720697798 16.188697057673615 -5 3 2
446 1 1 0.5897 3.485772040074355 12.452358010603193 16.210158807530732 1 2 1
25 1 2 -1.1794 2.4065225527483536 14.437264242399428 19.442126316168 1 5 6
241 1 2 -1.1794 4.318251547388508 16.535352652912994 20.600731130915428 4 1 -1
26 1 1 0.5897 2.5026200504983116 13.484938241649472 19.432385004006946 1 5 6
316 1 2 -1.1794 3.4888263798779633 11.856282027408522 19.38485908293339 -4 -2 -4
693 1 1 0.5897 3.26307766144758 15.416037988067739 17.99266608975025 2 1 2
691 1 2 -1.1794 3.6348907372883796 15.689101112212317 17.153957260271667 2 1 2
243 1 1 0.5897 3.498682692118632 16.548398598266264 21.095071970133176 4 1 -1
692 1 1 0.5897 3.8351333084983037 16.61775887194588 17.2711818905346 2 1 2
318 1 1 0.5897 4.253732044338532 12.328361787374394 19.713942367182298 -4 -2 -4
27 1 1 0.5897 1.4623466550041493 14.583782771295686 19.384533325691585 1 5 6
110 1 1 0.5897 4.7627353292666745 14.575490216765202 20.359177471786317 -3 1 -8
593 1 1 0.5897 2.7201989558643955 14.273989660888002 21.417928704625893 -3 -3 -4
192 1 1 0.5897 3.3466509672452425 19.426478506010767 2.6987171034947037 7 5 -6
561 1 1 0.5897 1.195993411852316 20.369764973074687 5.533346263157218 5 0 -1
850 1 2 -1.1794 3.9602625691182243 18.520193536657032 4.091330719244886 -3 -6 -2
217 1 2 -1.1794 1.3336996715400353 18.675310390604174 5.130990082563731 1 3 -1
190 1 2 -1.1794 2.849957435479261 19.53308023656013 1.887424997688974 7 5 -6
851 1 1 0.5897 4.333058461247951 17.63902655700953 4.119984487173989 -3 -6 -2
191 1 1 0.5897 2.1598869849773 20.158360009678482 2.108919374201628 7 5 -6
219 1 1 0.5897 1.2646459265533463 18.03250771756219 5.836876284446842 1 3 -1
5 1 1 0.5897 2.402154966814197 17.916908739066713 1.6200647503459527 0 -1 -3
554 1 1 0.5897 0.8112522985599236 21.179411603590623 1.667967121569541 -6 -6 5
218 1 1 0.5897 2.217201870201321 18.555346889329584 4.782733964714236 1 3 -1
553 1 2 -1.1794 0.8393600346548475 21.689302442560873 2.477569705167056 -6 -6 5
559 1 2 -1.1794 1.1161945025976077 21.299809159594773 5.745282448908733 5 0 -1
4 1 2 -1.1794 2.192280154345436 17.011756820417947 1.3900312478389174 0 -1 -3
852 1 1 0.5897 4.410948792228236 18.99430746676184 4.790153787643078 -3 -6 -2
6 1 1 0.5897 1.2515844097342246 17.021006391635872 1.213274289902277 0 -1 -3
138 1 1 0.5897 4.172334898829403 17.450617392864373 7.581529003818151 6 -10 6
394 1 2 -1.1794 3.3206274808680303 18.63110433098531 8.4542844797698 -1 0 5
54 1 1 0.5897 1.11064223375006 20.992203521312 8.635248413009407 -8 -2 1
52 1 2 -1.1794 2.033692894868543 21.05206414794634 8.881483442909444 -8 -2 1
396 1 1 0.5897 3.138168262628477 18.226448296427186 9.302339934611513 -1 0 4
395 1 1 0.5897 4.029695942094737 19.249369679602637 8.63096949742274 -1 0 5
53 1 1 0.5897 2.397467443347101 20.195073058898558 8.65906772713399 -8 -2 1
62 1 1 0.5897 2.0772948609918265 21.149243033528194 10.810085683247543 -4 4 0
492 1 1 0.5897 0.5903224300318165 17.060494954238578 8.088235121100263 -2 2 3
560 1 1 0.5897 0.6537348059516073 21.316162725739943 6.583200920237348 5 0 -1
718 1 2 -1.1794 3.1907875922363917 17.922660656579467 11.097588867723749 8 5 0
720 1 1 0.5897 4.114000048394045 18.175324358962158 11.08908337343179 8 5 0
844 1 2 -1.1794 1.2066035857358273 20.524803458067616 16.238061652338786 -3 -1 1
63 1 1 0.5897 1.3288994897560622 20.257258269964233 11.777700517157728 -4 4 0
61 1 2 -1.1794 2.172169419482584 20.690263493652076 11.644705696503609 -4 4 0
19 1 2 -1.1794 3.7171447461860216 21.724142917655904 13.6950088330945 -2 -3 0
21 1 1 0.5897 2.984203738806898 21.486147792740127 13.12721576231071 -2 -3 0
609 1 1 0.5897 2.011825792828787 17.29845432836136 14.252456426331877 3 6 0
608 1 1 0.5897 0.7957114621167751 17.85847216506987 14.959107563001396 3 6 0
551 1 1 0.5897 4.442103034776929 19.29583135483155 15.538684526886003 1 0 -2
607 1 2 -1.1794 1.7437138847263303 17.966825909703793 14.88303778270936 3 6 0
552 1 1 0.5897 4.648402963327332 20.46389313015319 14.597948618142508 1 0 -2
719 1 1 0.5897 2.7204588360762005 18.737898429516072 11.271973255679297 8 5 0
845 1 1 0.5897 1.5552925766969656 19.69947971039253 15.90117288435157 -3 -1 1
180 1 1 0.5897 3.4255722858189324 19.04362517532033 17.48997665454874 -6 1 -4
556 1 2 -1.1794 2.606760617162012 18.691539395798053 19.728942201888444 4 2 2
557 1 1 0.5897 3.3048802088765 18.194632407849426 20.15549632623633 4 2 2
479 1 1 0.5897 3.47375876319883 20.885298435770565 18.701002026693203 -3 5 -5
478 1 2 -1.1794 3.1896472611838322 21.12530753063976 17.81900794508433 -3 5 -5
558 1 1 0.5897 2.079614235215811 19.03320091687852 20.45117372300519 4 2 2
178 1 2 -1.1794 3.6715443313508476 18.360808620914476 16.865874153376595 -6 1 -4
846 1 1 0.5897 1.908586754335673 20.876133019136205 16.785807502949744 -3 -1 1
234 1 1 0.5897 0.7961549906512777 17.820655703842235 19.089747379617748 3 3 0
495 1 1 0.5897 3.7311246902174138 20.326438801523906 21.05679117694679 -5 -2 -2
493 1 2 -1.1794 4.3998572999722345 20.95374405123944 20.78197142374473 -5 -2 -2
179 1 1 0.5897 2.8517029659631863 18.126738372546072 16.430775952390977 -6 1 -4
633 1 1 0.5897 7.70472315263789 5.904515819267297 1.264159070358628 3 6 4
336 1 1 0.5897 9.009544904074701 5.785581134788622 2.9150105895505862 13 3 4
794 1 1 0.5897 5.069767903343904 6.206320641696153 3.8450825549772887 -5 0 6
820 1 2 -1.1794 5.6585940539083985 4.803137754124979 4.622795860085741 0 1 7
821 1 1 0.5897 5.28122559179229 4.080863333528418 4.1206416465003795 0 1 7
631 1 2 -1.1794 7.488372497672631 5.379061621522682 2.0344367781156385 3 6 4
632 1 1 0.5897 6.562432638997263 5.162528820093509 1.9248926158616504 3 6 4
822 1 1 0.5897 5.868287078419179 4.419597003458822 5.474377073812545 0 1 7
606 1 1 0.5897 8.05246709515719 3.547872018374095 2.627577496509354 -5 0 1
604 1 2 -1.1794 8.549127445725809 2.7813495903081904 2.9139427197478747 -5 0 1
664 1 2 -1.1794 8.492715018261702 5.453511070045441 5.587205091345687 0 -3 2
666 1 1 0.5897 7.701487727309908 5.253656433449306 5.086941746517877 0 -3 2
274 1 2 -1.1794 5.11723689948639 4.295040209575386 0.8774902101511504 -3 3 -1
422 1 1 0.5897 4.977740734867206 5.380196712498041 10.212725129460937 -5 4 8
293 1 1 0.5897 7.42872883835399 4.838026263582973 9.929683888636951 -2 0 1
292 1 2 -1.1794 8.052020850186015 4.155397291279756 10.17822942621542 -2 0 1
311 1 1 0.5897 5.001990575107326 3.5281095186284777 7.413171865201353 -3 1 1
421 1 2 -1.1794 5.448167686464597 5.764697386907105 9.47306524833276 -5 4 8
842 1 1 0.5897 6.68675499200621 2.6457535799648255 8.10377704098407 -2 -4 4
312 1 1 0.5897 6.065548325621172 4.457648200862144 7.957874439452388 -3 1 1
294 1 1 0.5897 7.705535613600926 3.357257903259826 9.779285462480146 -2 0 1
17 1 1 0.5897 8.81637100452895 1.9105255189326333 6.414345086180813 0 4 1
310 1 2 -1.1794 5.887287616230616 3.8488336760801793 7.2410712914509 -3 1 1
841 1 2 -1.1794 7.128319565320982 2.0415338340966067 8.700608964995215 -2 -4 4
690 1 1 0.5897 5.124416028647042 2.2755806781506935 10.71788663966302 3 1 0
38 1 1 0.5897 7.635794936501633 6.752146594029259 6.531046634018902 -2 0 -2
843 1 1 0.5897 7.963528285899555 1.85020608703946 8.273894873749079 -2 -4 4
325 1 2 -1.1794 6.089612762593178 2.947819901841984 14.637218784812111 3 -1 -3
439 1 2 -1.1794 4.850091221818517 4.792012413965393 12.011042592096272 2 -3 -2
735 1 1 0.5897 8.553447217142661 2.645727677539773 12.99403161779105 5 1 -4
576 1 1 0.5897 7.3198038593212456 1.9491501303228218 11.640527038853334 6 0 1
733 1 2 -1.1794 8.671473506704835 2.981046689806124 13.882780235905882 5 1 -4
326 1 1 0.5897 7.034221762622802 3.0416176595005426 14.513973901908821 3 -1 -3
461 1 1 0.5897 5.368082846819485 5.661189110316888 16.10077649998921 3 0 -1
265 1 2 -1.1794 7.221063979188201 5.65624173949958 13.195951129377065 1 0 0
266 1 1 0.5897 7.639981077756869 6.40038608297044 12.763527060645654 1 0 0
440 1 1 0.5897 5.629147375580274 5.241768232716431 12.338197782220792 2 -3 -2
688 1 2 -1.1794 5.55473380725368 2.1571558593565507 11.564676205747213 3 1 0
327 1 1 0.5897 5.761932316089312 2.673151155793888 13.780791888651262 3 -1 -3
267 1 1 0.5897 6.851377473928554 6.022507426362351 13.999337479480419 1 0 0
462 1 1 0.5897 5.251213983261466 4.521135913923558 15.111563281520239 3 0 -1
441 1 1 0.5897 5.101419677671322 3.868922375320749 11.979406195821642 2 -3 -2
734 1 1 0.5897 8.706037653705565 3.9318865060378845 13.777919552701386 5 1 -4
717 1 1 0.5897 9.052430691429418 1.7930876508315692 15.339407833256978 5 -6 -2
527 1 1 0.5897 6.9934025157283 2.9175956237161236 19.943255751935638 -4 -4 3
60 1 1 0.5897 7.169750937500806 5.995094679451214 17.723446679054426 4 1 1
526 1 2 -1.1794 7.522718538545231 2.928103292671696 20.74075088993125 -4 -4 3
839 1 1 0.5897 8.710266962833739 5.571256735212485 20.040817686472558 -2 -2 -2
417 1 1 0.5897 8.754876011867374 3.018444447233019 17.12784184261519 0 -1 0
276 1 1 0.5897 4.983432042065907 5.082092567439465 21.16663522886413 -3 3 -2
528 1 1 0.5897 7.188267603512284 3.6725505423172544 21.240951694351047 -4 -4 3
58 1 2 -1.1794 6.235139116938852 6.198396483696527 17.686003080396098 4 1 1
611 1 1 0.5897 5.317078054676694 6.160675941888707 19.525990812877644 4 5 -2
469 1 2 -1.1794 6.3403108300697255 2.904502675660776 18.212383042960134 0 -4 0
471 1 1 0.5897 6.809553952861939 3.3917158861369634 17.53512819563864 0 -4 0
838 1 2 -1.1794 8.121842399735154 6.289327938150242 20.273999779678412 -2 -2 -2
470 1 1 0.5897 6.359983270175884 1.9959761941762757 17.911632342662244 0 -4 0
415 1 2 -1.1794 8.684432977939592 3.957129271961904 17.30151765748382 0 -1 0
645 1 1 0.5897 5.97561987477036 9.585247616533891 5.842992647746058 3 -3 3
251 1 1 0.5897 5.68910525143898 7.947385042976703 2.2164197465454913 5 -7 2
224 1 1 0.5897 9.021169490866528 8.673942301845523 4.4091891729074275 7 5 -5
466 1 2 -1.1794 8.885630147170168 8.817265054099458 2.4989562201264963 5 -4 7
252 1 1 0.5897 5.59739281690373 9.143280595616636 1.2926543066114227 5 -7 2
680 1 1 0.5897 5.124168666793187 10.09608396868467 4.181004071628117 -6 -7 1
625 1 2 -1.1794 7.084376074682302 11.542476599856437 0.8647136900870087 -9 -2 4
468 1 1 0.5897 7.93678223092529 8.705366452129052 2.4404581204941245 5 -4 7
205 1 2 -1.1794 5.8456954178232134 11.552985532144621 3.4184552261962478 -1 1 2
250 1 2 -1.1794 6.208062035253207 8.479610117642963 1.6133750034882512 5 -7 2
626 1 1 0.5897 6.647689811512506 11.279051458304933 1.6747637080286548 -9 -2 4
644 1 1 0.5897 7.043821887638055 10.644472484585753 5.672957262052091 3 -3 3
431 1 1 0.5897 8.677125381447446 11.688154056874135 1.862761696401616 -5 -1 -3
351 1 1 0.5897 6.547645875999558 10.167602231371644 8.120271987351003 -7 4 -5
510 1 1 0.5897 5.876193207510228 11.30946663762198 9.796684664678455 -1 -2 4
289 1 2 -1.1794 5.96804801446321 8.178101725707183 10.659829674561331 -6 -6 -11
290 1 1 0.5897 6.084766787749934 8.846495317013002 9.984645595853008 -6 -6 -11
150 1 1 0.5897 9.063064858603253 7.077402259636616 10.593702241128073 -1 4 -1
270 1 1 0.5897 8.740298758053875 7.244078218356253 8.27410383555193 -2 2 6
349 1 2 -1.1794 6.900148321271069 10.098232569174746 9.007500872922966 -7 4 -5
350 1 1 0.5897 7.779268611276209 10.471919789120006 8.946356471683762 -7 4 -5
674 1 1 0.5897 5.149857465905881 7.121664906393949 7.198923126922719 -2 -2 -6
291 1 1 0.5897 5.629693212658778 7.4170153096034905 10.18813481827297 -6 -6 -11
37 1 2 -1.1794 7.219698778136768 7.367680487061013 7.134555869511282 -2 0 -2
643 1 2 -1.1794 6.634386221701263 10.080865173941321 6.329432298988169 3 -3 3
39 1 1 0.5897 7.485010597433744 8.23102217457184 6.817563768394128 -2 0 -2
390 1 1 0.5897 6.505857529378463 10.407700620567846 12.205343233478288 -1 5 3
13 1 2 -1.1794 7.909591802973602 11.592215147893247 15.716349651510258 1 -2 -2
388 1 2 -1.1794 7.460415768416842 10.413554444628673 12.276328363379472 -1 5 3
863 1 1 0.5897 7.504273899793674 8.008044411600608 15.04953181821832 1 -1 -1
362 1 1 0.5897 6.501320009847279 10.502919714426183 15.074488018428863 4 -5 -3
862 1 2 -1.1794 6.798272428537463 7.400141693588144 15.26922470259301 1 -1 -1
149 1 1 0.5897 7.817033368807925 7.761568111303664 11.114522254652963 -1 4 -1
583 1 2 -1.1794 8.952757069241827 8.787490157353268 14.362914938122834 3 -1 1
864 1 1 0.5897 5.996306802568219 7.873780965741947 15.04835710506405 1 -1 -1
363 1 1 0.5897 5.09991397188062 10.899220565887635 15.48798834231923 4 -5 -3
148 1 2 -1.1794 8.642887748475498 7.372012120349267 11.401718938975113 -1 4 -1
389 1 1 0.5897 7.757617375771279 10.85321381235603 11.479704800510058 -1 5 2
361 1 2 -1.1794 5.580599799384591 10.277293002985246 14.941723390438444 4 -5 -3
585 1 1 0.5897 8.507151968523768 9.094233461574756 13.573242680109857 3 -1 1
186 1 1 0.5897 5.209567242606365 7.7530938152731315 12.279210860101307 -1 2 3
184 1 2 -1.1794 4.858691347206775 7.898722644909133 13.157796994467878 -1 2 3
858 1 1 0.5897 6.070134137625721 10.258444588341515 19.99905623327267 0 -3 0
840 1 1 0.5897 8.36127219512493 6.998993314661959 19.67794606866586 -2 -2 -2
856 1 2 -1.1794 6.351154931447543 9.988034766316648 19.124885069612944 0 -3 0
338 1 1 0.5897 9.03703200231138 8.767134835830802 18.090045406438804 1 1 2
857 1 1 0.5897 7.161040009174209 9.499901472793553 19.273492433839735 0 -3 0
855 1 1 0.5897 7.268902915933973 11.562444269211646 18.715254586373014 0 2 -2
337 1 2 -1.1794 8.589897627856876 8.520636480547555 18.899709903240904 1 1 2
669 1 1 0.5897 5.49610101478311 9.09852750137677 17.978668913789257 -5 -4 -2
612 1 1 0.5897 5.4894912377838905 6.970481273041362 20.793435847634477 4 5 -2
668 1 1 0.5897 5.218628142200453 9.304204805724853 16.504690404482876 -5 -4 -3
667 1 2 -1.1794 5.079064622872815 8.68616916928719 17.22218029373272 -5 -4 -2
59 1 1 0.5897 6.18855306809012 7.02603380418646 17.207344934320176 4 1 1
301 1 2 -1.1794 8.446148571320716 14.965169603927945 3.9800358556142825 -1 3 6
796 1 2 -1.1794 7.744387812346823 14.553571593521184 0.8270830278226431 1 -6 -6
302 1 1 0.5897 7.884376438444422 15.64105217458443 4.359288918235937 -1 3 6
749 1 1 0.5897 5.390000378439567 15.01386029077867 4.449795342971431 0 3 0
303 1 1 0.5897 8.888836439867063 14.571353116723397 4.731850946675541 -1 3 6
418 1 2 -1.1794 5.697044811023639 13.704386666470484 5.6874320772193485 -10 -1 6
122 1 1 0.5897 5.678090440386344 15.97270749678007 2.4138538753345316 2 3 0
797 1 1 0.5897 7.403144552994039 15.336660819194371 1.2590073044966696 1 -6 -6
565 1 2 -1.1794 8.222370413288854 12.120186358347386 4.864276711694521 0 7 -8
121 1 2 -1.1794 6.165375078324385 16.460158568104298 1.7496330858235867 2 3 0
748 1 2 -1.1794 5.041731352796284 15.834810697943041 4.101880778069276 0 3 0
207 1 1 0.5897 6.154017081284644 12.111261798334544 4.13224713583091 -1 1 2
798 1 1 0.5897 8.61279605328202 14.42770823348922 1.209522224466261 1 -6 -6
627 1 1 0.5897 7.067037506463172 12.499363609377456 0.8829527215243429 -9 -2 4
206 1 1 0.5897 4.957889558962703 11.862148027643615 3.238311192709858 -1 1 2
567 1 1 0.5897 8.555969564916339 12.232984356587659 3.974172923651824 0 7 -8
566 1 1 0.5897 8.989648026911512 11.867831039408932 5.377958087382877 0 7 -8
420 1 1 0.5897 5.169875483514903 13.406657098198506 6.428861433590833 -10 -1 6
419 1 1 0.5897 6.583738801573271 13.782500593122316 6.039467648992134 -10 -1 6
509 1 1 0.5897 6.194793971979112 12.764693472628322 10.066363075889393 -1 -2 4
641 1 1 0.5897 7.323093900125901 14.583107250872946 10.271774893028908 4 0 -4
640 1 2 -1.1794 7.7068040740945944 13.792739489349747 9.89184653660156 4 0 -4
496 1 2 -1.1794 7.907936335847406 14.863633635730997 7.144750147399071 1 2 2
497 1 1 0.5897 8.841270777596456 14.759893731202682 6.9593798469724835 1 2 2
498 1 1 0.5897 7.696196151480874 15.741297395307882 6.826736550137879 1 2 1
642 1 1 0.5897 7.567831190420603 13.88758206692776 8.949535287402133 4 0 -4
187 1 2 -1.1794 5.084564184258944 15.467980693164074 9.815049669671273 -1 5 3
189 1 1 0.5897 5.514066570763051 16.01597551055301 10.471932495148328 -1 5 3
188 1 1 0.5897 5.181003070157451 15.954521458764624 8.996385435991167 -1 5 3
508 1 2 -1.1794 5.518436923620326 12.100599898714421 10.199621307367927 -1 -2 4
617 1 1 0.5897 8.710005252379215 16.59458761567665 9.39298578142642 2 2 -1
142 1 2 -1.1794 6.859155033954041 15.533046003332464 12.13877559894463 -1 4 1
2 1 1 0.5897 7.951165283453106 15.031777111662867 15.060179366055017 1 -4 6
96 1 1 0.5897 8.443486007686204 16.20757020684318 12.466015327816875 -7 1 2
15 1 1 0.5897 7.7028109264165705 12.342311129512726 15.158802716688268 1 -2 -2
144 1 1 0.5897 6.83223187885755 14.641435050937337 12.485970918521552 -1 4 1
615 1 1 0.5897 6.082867857527779 16.184799996036844 14.652447388373755 -4 -2 2
1 1 2 -1.1794 7.355107967850901 15.584417936118001 15.56572048640686 1 -4 6
537 1 1 0.5897 5.849490186075849 13.094658844660517 13.260859279995335 3 6 5
535 1 2 -1.1794 6.7991047122160575 13.024417541479876 13.358510759592127 3 6 5
536 1 1 0.5897 7.0073264722022195 12.142052288032104 13.051411002493039 3 6 5
143 1 1 0.5897 6.311489900655404 16.040491389034724 12.737787218260987 -1 4 1
613 1 2 -1.1794 5.439111885092071 16.701783323243536 14.168152904993715 -4 -2 2
3 1 1 0.5897 6.851890342721821 14.969267329062896 16.09921164085197 1 -4 6
803 1 1 0.5897 8.274737826395166 14.985888301627744 19.956675846903224 5 0 -3
819 1 1 0.5897 5.086198997028439 14.639056690942839 16.97316637072427 5 0 3
802 1 2 -1.1794 8.40551374389557 15.217227998675204 19.037088753436606 5 0 -3
109 1 2 -1.1794 5.2140125912149085 13.749833585072782 20.53492501104987 -3 1 -8
165 1 1 0.5897 5.378504151165488 16.56058337100833 18.92011429808413 -6 -1 0
817 1 2 -1.1794 5.758171931485261 13.964173514116252 17.069193699482298 5 1 3