LAMMPS data file via write_data, version 30 Jul 2021, timestep = 6000000

864 atoms
2 atom types
576 bonds
1 bond types
288 angles
1 angle types

0.6847683070208159 17.522804092976344 xlo xhi
1.8980978851778456 21.731079914824413 ylo yhi
0.8354157351308924 21.377780064870294 zlo zhi

Masses

1 1.00794
2 15.9994

Pair Coeffs # lj/cut/tip4p/long/omp

1 0 0
2 0.21084 3.1668

Bond Coeffs # harmonic/omp

1 450 0.9572

Angle Coeffs # harmonic/omp

1 55 104.52

Atoms # full

246 1 1 0.5897 3.838482986183495 4.79743209840605 3.594609990188094 -3 0 -2
75 1 1 0.5897 3.7389327452078533 3.2442708377956078 5.195267405058734 0 -2 4
700 1 2 -1.1794 1.5974109110456045 2.537888804759878 2.467164295915316 1 -1 3
244 1 2 -1.1794 3.012385974629543 4.50475569757838 3.979933070876665 -3 0 -2
245 1 1 0.5897 2.737578761257396 3.7709759420568716 3.429819108242637 -3 0 -2
97 1 2 -1.1794 4.3498310503771185 3.0861291378633293 1.1447037664359954 2 -6 7
702 1 1 0.5897 1.288094451520342 3.061906742698968 1.728084309122221 1 -1 3
242 1 1 0.5897 2.226351447603398 5.8026354711299 5.566212015201376 -4 0 4
464 1 1 0.5897 3.6399638937588565 6.250408393495378 1.9652372184468438 5 7 -1
306 1 1 0.5897 1.2009708070377492 5.663118388222921 3.1969907152515695 4 -2 -5
98 1 1 0.5897 4.0872591370726425 4.005595677677892 1.1910690618089121 2 -6 7
463 1 2 -1.1794 3.4885851052234935 5.605896036650446 1.2737239054165974 5 7 -1
241 1 2 -1.1794 1.6475219556955727 6.557030617671425 5.677298309664991 -4 0 4
73 1 2 -1.1794 4.458540963222394 2.9823719253439673 5.769781749951271 0 -2 4
60 1 1 0.5897 1.4829329307582768 2.7912232483284387 9.940618573588095 1 -3 -3
844 1 2 -1.1794 1.4423056358312265 3.984966331351598 6.988714385191972 1 -2 5
806 1 1 0.5897 2.9539020753318055 4.850807431019694 7.31956603527517 5 -1 -2
845 1 1 0.5897 1.675646313753073 3.1807959722590997 7.452792299925238 1 -2 5
58 1 2 -1.1794 2.2910303845658317 3.1208497322342463 9.54714373899865 1 -3 -3
500 1 1 0.5897 2.619304538898625 6.323229681546417 8.69206286487763 -3 1 -5
805 1 2 -1.1794 3.7234724729611433 5.329686590218449 7.6276776529187735 5 -1 -2
59 1 1 0.5897 2.6894631841145458 3.658427063826871 10.231803285284125 1 -3 -3
499 1 2 -1.1794 2.0693559873999607 6.5686660487781925 9.436244660277007 -3 1 -5
807 1 1 0.5897 4.363716816851126 4.648287248415503 7.8334012238879875 5 -1 -2
27 1 1 0.5897 4.613937305003733 5.1901677939860615 10.74096070526074 0 7 2
167 1 1 0.5897 2.6828439768143375 5.52010486875786 10.641685038408554 -2 -2 5
243 1 1 0.5897 1.0292560817566951 6.2872094286037425 6.356586019323523 -4 0 4
846 1 1 0.5897 1.0227515825904891 3.6837981759355367 6.182622262349855 1 -2 5
278 1 1 0.5897 4.638800558592519 6.403969045585991 6.145138058544029 2 2 -1
666 1 1 0.5897 2.5051615715259627 6.1602509268915835 14.105994550380819 0 2 2
17 1 1 0.5897 2.602461537647899 4.303488709363522 15.616250205551488 -3 5 3
41 1 1 0.5897 1.2831071983379023 2.8574571738780503 15.285720805756938 -2 1 3
16 1 2 -1.1794 2.686083071161867 5.252920475371706 15.52638898586005 -3 5 3
664 1 2 -1.1794 2.409867143066922 6.731291221750017 13.343548532242698 0 2 2
665 1 1 0.5897 1.4909287314132609 6.642246439264497 13.090337747446902 0 2 2
87 1 1 0.5897 3.2261928404628244 3.123115669426813 12.8005235021027 -4 5 2
85 1 2 -1.1794 3.865812290259364 2.583343824225675 13.2653211764412 -4 5 2
18 1 1 0.5897 1.8881624449332484 5.602768836170027 15.923147083310257 -3 5 3
166 1 2 -1.1794 3.058780674507324 4.9218734548049365 11.28765585002604 -2 -2 5
168 1 1 0.5897 2.8561853076809918 5.323162034836239 12.132900089872345 -2 -2 5
213 1 1 0.5897 4.696533564829669 5.8268887185342955 15.526460497135847 6 2 5
40 1 2 -1.1794 1.8120187755300512 2.731238005588589 16.073638742885056 -2 1 3
198 1 1 0.5897 4.630982335958072 2.335015568202053 11.85137037376278 -1 -6 -1
55 1 2 -1.1794 3.5138303960836526 5.764753145113789 18.489981955028618 -4 -3 0
712 1 2 -1.1794 1.1353262742670487 6.500067174455081 20.69323513658712 -4 -2 0
57 1 1 0.5897 3.8196117673783703 6.530873993720321 18.975865895100192 -4 -3 0
56 1 1 0.5897 3.3480945103545605 6.091839464807217 17.60565274604788 -4 -3 0
99 1 1 0.5897 3.957272653387384 2.76507459803854 20.875087934296275 2 -6 6
644 1 1 0.5897 4.7931494900303875 4.350283747977556 17.86694046961174 5 -1 -4
608 1 1 0.5897 3.9095377660926496 2.454828735279811 18.742013228844257 3 7 3
634 1 2 -1.1794 1.267487813168902 4.4345875611519965 18.305021676973276 -9 3 4
635 1 1 0.5897 2.086697393692332 4.904737587939151 18.46106696661392 -9 3 4
636 1 1 0.5897 0.9816454517632023 4.155185913367339 19.1749205478422 -9 3 4
42 1 1 0.5897 1.309777138563434 3.1543833557085286 16.770213470749287 -2 1 3
465 1 1 0.5897 2.693567555488593 5.907831058674697 21.376440630335807 5 7 -2
376 1 2 -1.1794 0.8892665725698735 11.293516784177676 4.864494469288725 4 1 1
377 1 1 0.5897 1.2403020454539213 10.434722976166746 4.628409567954769 4 1 1
290 1 1 0.5897 2.8134916892354838 9.44547687163058 4.9178221886542435 -7 -3 -6
291 1 1 0.5897 2.2249358341339294 8.056105236989255 4.792179560152118 -7 -3 -6
714 1 1 0.5897 0.8669152667983305 6.934315385374842 0.9607449634373474 -4 -2 1
144 1 1 0.5897 1.7823252435638246 9.203664043334001 1.5758851572927555 -4 4 4
289 1 2 -1.1794 2.3452544925026935 8.873844232380623 4.309152130173937 -7 -3 -6
424 1 2 -1.1794 4.3757585041533416 7.7764127932635 2.8243523447226098 6 -2 3
426 1 1 0.5897 4.880946864902429 7.496729956646887 3.5879321207819816 6 -3 3
425 1 1 0.5897 3.5640881355216294 8.1290235642082 3.1895688055972746 6 -2 3
774 1 1 0.5897 3.615354470361731 10.96651201809385 5.802278923734752 1 -4 5
142 1 2 -1.1794 2.4073535312306387 9.346604274277585 0.8649519206626692 -4 4 4
616 1 2 -1.1794 1.6613470282675566 8.782822341744854 7.900554054668342 0 3 0
669 1 1 0.5897 4.298765684934278 10.823377096843558 7.844625382995148 -8 0 2
667 1 2 -1.1794 4.827043875093288 11.006482533782565 8.621735533962088 -8 0 2
618 1 1 0.5897 2.4377377783114667 8.613573939496028 7.366644184743734 0 3 0
505 1 2 -1.1794 2.8421088592762054 9.315385809664498 10.53519531068939 2 3 0
617 1 1 0.5897 1.4240649025487215 9.68811594089674 7.6988940694406125 0 3 0
506 1 1 0.5897 2.7730394780249266 8.97889395759421 9.64161217835946 2 3 0
501 1 1 0.5897 1.7216445293807763 7.429865647133081 9.204029454826628 -3 1 -5
850 1 2 -1.1794 0.7810381815971754 11.363580064348056 7.701289947698624 -2 3 0
851 1 1 0.5897 0.9160835575379022 11.640732448664476 6.7949530986964675 -2 3 0
772 1 2 -1.1794 3.64791976142244 10.124409265060919 6.256490748668214 1 -4 5
507 1 1 0.5897 3.5860287881077815 8.845109322622726 10.911923436002523 2 3 0
668 1 1 0.5897 4.733903116953867 10.223849383797074 9.165151160285028 -8 0 1
773 1 1 0.5897 4.526051228637121 9.788357002794427 6.076369486847731 1 -4 5
276 1 1 0.5897 3.8985078471834367 7.549985805279268 12.62173226251872 -4 5 -2
134 1 1 0.5897 3.673829494240784 7.674504993845853 16.02128224329945 0 -5 -3
455 1 1 0.5897 0.8174193561404411 8.661893055616268 13.828812303698786 5 -4 0
750 1 1 0.5897 4.131779479171735 10.540593138146031 14.10271484468896 6 4 1
748 1 2 -1.1794 3.21348470619608 10.785616976026668 13.987844328801783 6 4 1
341 1 1 0.5897 1.3115144662806428 11.519310619617483 12.094772598305827 1 4 -1
749 1 1 0.5897 3.192146745010027 11.251446858231326 13.15175826441978 6 4 1
274 1 2 -1.1794 4.593531613932312 8.070343559000161 12.21840432517725 -4 5 -2
566 1 1 0.5897 1.401322448058734 9.04480376466764 11.382960272338625 3 6 -7
454 1 2 -1.1794 1.0509607028549164 9.130738242129931 14.630145046226364 5 -4 0
456 1 1 0.5897 1.7625938604146172 9.714882663000516 14.367712290506491 5 -4 0
135 1 1 0.5897 2.325953670677939 8.357975286853177 15.928315959905113 0 -5 -3
173 1 1 0.5897 3.179840870241285 10.908931380222823 11.155841882080384 4 2 0
504 1 1 0.5897 3.541872381509595 11.766636971844374 15.508928681880152 -7 0 2
172 1 2 -1.1794 2.9770381213915513 11.776097235151237 11.507103466018323 4 2 0
719 1 1 0.5897 4.2098793620185315 9.718568956715623 17.6701155330774 1 3 -1
143 1 1 0.5897 1.8687352688990926 9.375595277506697 20.616398495392886 -4 4 3
133 1 2 -1.1794 3.088112263297504 8.261592776288726 16.499562307771946 0 -5 -3
105 1 1 0.5897 2.1347680334898875 8.424265733438368 18.08550995439829 2 -2 5
471 1 1 0.5897 4.462533111218059 8.52280604576815 19.49253785857178 4 -5 5
104 1 1 0.5897 1.0856060405641403 9.426789334187161 18.517757187476626 2 -2 5
469 1 2 -1.1794 4.372249187492617 7.791754824964566 20.10401486771086 4 -5 5
720 1 1 0.5897 4.351704062759776 10.954955932817358 18.53257914603425 1 3 -1
103 1 2 -1.1794 1.3925073088111448 8.534600210168918 18.67999120769648 2 -2 5
470 1 1 0.5897 3.725150443672815 8.091554347933084 20.742666721815638 4 -5 5
718 1 2 -1.1794 4.546937491583076 10.017910906786458 18.514708577522292 1 3 -1
713 1 1 0.5897 1.2541051983351585 7.213695858918648 20.066230227607456 -4 -2 0
620 1 1 0.5897 0.9883068515607821 11.758759907646366 19.065253046243313 2 1 2
32 1 1 0.5897 3.3758769045585546 10.935364763493475 21.339022850966714 7 7 4
835 1 2 -1.1794 4.003682842360414 12.690655967803677 5.568006148235682 -3 1 -4
703 1 2 -1.1794 3.815101958465036 15.406704561385933 2.9416952927872684 1 0 -2
837 1 1 0.5897 3.2481469323785714 13.27758668763308 5.602268154990283 -3 1 -4
836 1 1 0.5897 4.195271794556653 12.600283337580748 4.634397740937674 -3 1 -4
163 1 2 -1.1794 2.123027055476804 13.046786980751024 2.979257811781089 3 2 0
653 1 1 0.5897 1.8590080931327708 16.15107721404922 1.3498127604282002 -2 -2 -1
164 1 1 0.5897 2.5730541375534 13.891606564319122 2.9633124719963053 3 2 0
705 1 1 0.5897 4.126913226631937 15.199445783109338 2.0605969458048152 1 0 -2
165 1 1 0.5897 2.480602299025896 12.570169919567897 2.2299432155366605 3 2 0
704 1 1 0.5897 3.8207866130686265 16.3632804130787 2.97948208328199 1 0 -2
31 1 2 -1.1794 3.4229139184915875 11.871809606711272 0.9899620472983119 7 7 5
378 1 1 0.5897 1.399009314037498 11.913033391081155 4.342131134110636 4 1 1
764 1 1 0.5897 4.662846433368502 11.954948492686755 2.2529773984234276 -6 1 -5
533 1 1 0.5897 1.0632851322230235 14.60771560426963 5.933901019414822 -10 -4 -3
154 1 2 -1.1794 2.6183844184538416 15.532993048831182 8.70614016255498 5 3 -1
156 1 1 0.5897 2.7689530616369393 16.474843120928064 8.78820856457411 5 3 -1
695 1 1 0.5897 1.4630518179328371 13.977462607436129 9.052419509317948 -1 -3 -1
174 1 1 0.5897 2.7133910964737615 12.288960804492591 10.742934050928387 4 2 0
694 1 2 -1.1794 1.280444033085189 13.14101716508186 9.480793061355541 -1 -3 -1
263 1 1 0.5897 2.58076805010294 15.933045383683869 10.47029707428006 1 -2 4
155 1 1 0.5897 3.4954510696818026 15.14931557667794 8.700386614353064 5 3 -1
534 1 1 0.5897 2.0558541905272585 14.60073497745152 7.077278731968886 -10 -4 -3
852 1 1 0.5897 1.0582119879301728 12.114930672167066 8.225854163344788 -2 3 0
808 1 2 -1.1794 4.845467785785874 13.94308708978846 8.604672713907153 4 1 0
532 1 2 -1.1794 1.8651020879094222 14.18198980921254 6.2377696463400145 -10 -4 -3
709 1 2 -1.1794 3.0331894768176637 14.612362430756564 13.846621194855336 -3 -4 -2
513 1 1 0.5897 4.532790960017747 15.532301852694932 14.030494648758706 -2 4 -2
502 1 2 -1.1794 3.704697010945947 12.552337305514374 16.031095636582275 -7 0 2
711 1 1 0.5897 2.1558186734465377 14.306305344073511 14.07691814982242 -3 -4 -2
372 1 1 0.5897 3.72495325104198 14.927203124203194 15.955536016415195 0 6 -2
681 1 1 0.5897 1.3456732063901744 16.44885547801116 12.575278337483406 -5 -4 2
262 1 2 -1.1794 2.5208709544484487 16.059460025920906 11.417366514854352 1 -2 4
710 1 1 0.5897 2.9195169026070777 15.056692735221581 13.006297672750408 -3 -4 -2
863 1 1 0.5897 4.768211406182393 12.234516814021251 12.009609489918926 6 0 0
503 1 1 0.5897 4.490696012002896 12.938763857482682 15.644598104153381 -7 0 2
29 1 1 0.5897 3.5451885181865337 12.547678009025026 17.858838064571138 -9 0 3
478 1 2 -1.1794 1.9377646693814832 14.192892120969628 19.540054753662595 -4 3 -3
654 1 1 0.5897 1.6551467658954195 16.659180590606447 20.480505501399307 -2 -2 -2
561 1 1 0.5897 1.286742761241627 12.73508196077502 16.385060871321627 3 3 3
28 1 2 -1.1794 3.975472690563188 12.752263543936698 18.68919473967143 -9 0 3
480 1 1 0.5897 2.6059040747798967 13.606687014017586 19.184464381290276 -4 3 -3
371 1 1 0.5897 3.8371826747496596 15.414565144687478 17.38468236241158 0 6 -2
30 1 1 0.5897 4.719975173938764 13.302176129137969 18.44463115932492 -9 0 3
479 1 1 0.5897 2.4079805022150467 14.737983530771098 20.171139699818852 -4 3 -3
33 1 1 0.5897 3.8492343794576085 12.25413987593011 20.765133261718262 7 7 4
584 1 1 0.5897 1.1567576213243314 15.167868662275193 17.59384642211038 5 -4 -1
640 1 2 -1.1794 4.620870961071326 16.172092661025005 18.90830973157874 4 2 -5
370 1 2 -1.1794 3.281894887428703 15.471197933792157 16.60688693235187 0 6 -2
559 1 2 -1.1794 1.0305428150251237 12.539055754722709 17.286406185662486 3 3 3
652 1 2 -1.1794 2.3317566061118855 16.352821773228506 21.084528939622324 -2 -2 -2
786 1 1 0.5897 3.1985420344870747 19.184282601323275 5.200333935788414 6 5 3
472 1 2 -1.1794 1.9981778045164844 17.772452727073627 4.974815775039746 2 -2 -3
784 1 2 -1.1794 3.565333509259528 19.92277366208757 5.686755683626008 6 5 3
473 1 1 0.5897 1.5090179378420483 17.682317294417516 5.792803798222564 2 -2 -3
785 1 1 0.5897 3.830167351694121 20.54730405608906 5.011223832709674 6 5 3
407 1 1 0.5897 2.5735452163906865 19.577195843963914 0.9870072738816653 -4 -4 4
678 1 1 0.5897 4.365907335639638 21.521621399444236 2.548613544759262 -1 1 -5
605 1 1 0.5897 4.26735184424767 18.52826455557154 2.938411602500656 -3 0 -3
406 1 2 -1.1794 1.7124615079662346 19.979004232656123 1.1036573428031229 -4 -4 4
676 1 2 -1.1794 4.433679233917937 20.673617092369263 2.9876876547879014 -1 1 -5
474 1 1 0.5897 2.7308293814810205 17.16286303366181 5.0648662492156555 2 -2 -3
604 1 2 -1.1794 4.569616636427135 17.84272008608427 3.534360607720956 -3 0 -3
701 1 1 0.5897 1.740228919969276 21.49846724898247 2.0997323195616606 1 -2 3
390 1 1 0.5897 0.8548686194787223 19.318454138745146 2.6163014698670057 4 5 4
389 1 1 0.5897 0.8119933808660158 18.417573040351 3.832493548250056 4 5 3
90 1 1 0.5897 3.717255288953766 20.058201356195056 8.812153550424384 7 -5 4
662 1 1 0.5897 2.2939668402168665 18.23278870744801 8.368947681388747 0 -2 0
586 1 2 -1.1794 1.3796164326993532 20.89308392824867 7.566978533970791 0 1 6
151 1 2 -1.1794 4.701555880971553 17.24871852610998 6.630770724648574 3 2 -3
15 1 1 0.5897 1.296046522677699 19.98625567087793 9.167495556764594 3 -6 -8
13 1 2 -1.1794 1.0632837481122608 19.904553235248677 10.092506827724014 3 -6 -8
661 1 2 -1.1794 3.1670535922953897 18.20515112481271 8.760755762526188 0 -2 0
663 1 1 0.5897 3.730779990570138 17.862702376971185 8.066904384228094 0 -2 0
88 1 2 -1.1794 3.9565267099491837 20.98175395362044 8.732839291269077 7 -5 4
587 1 1 0.5897 2.1142350695847414 20.589958868451205 7.0331797668040315 0 1 6
734 1 1 0.5897 2.6484351956757672 19.086932598124058 10.937715509230696 2 3 -3
89 1 1 0.5897 3.1366719762988833 21.455168915206777 8.875092081052264 7 -5 4
187 1 2 -1.1794 0.7696086140052787 17.534895859490213 7.538467922258622 -3 5 -2
197 1 1 0.5897 4.577388811803063 21.472757339876928 10.507375160635211 -1 -7 -1
153 1 1 0.5897 4.755219608747208 18.00508421135529 6.046334897417286 3 2 -3
680 1 1 0.5897 1.1796413067711746 17.078067937948298 13.942492618108387 -5 -4 2
334 1 2 -1.1794 2.3016147374735167 17.685475471991914 15.018432701713579 7 1 4
335 1 1 0.5897 3.1086890896459525 17.902404709816956 14.551440978988884 7 1 4
733 1 2 -1.1794 3.090243707863946 18.617129493207777 11.64525842791109 2 3 -3
692 1 1 0.5897 2.3118119581522034 19.584594552428328 12.805177882405369 5 -5 1
693 1 1 0.5897 1.0907141646461067 20.230026111103058 13.425560525236964 5 -5 1
691 1 2 -1.1794 2.040825824928695 20.321856368260008 13.352450039196642 5 -5 1
576 1 1 0.5897 3.7857313625273874 20.037489128754075 15.96522077136515 1 -3 -3
735 1 1 0.5897 4.021521940979051 18.686289735843857 11.43443245152698 2 3 -3
336 1 1 0.5897 2.5212887339207866 16.905093304702902 15.52759516747585 7 1 4
264 1 1 0.5897 2.774503825164747 16.972394835920884 11.55416110336332 1 -2 4
86 1 1 0.5897 3.408165207685196 21.592237016947664 13.43245133124636 -4 4 2
316 1 2 -1.1794 4.733395775705429 19.176137213262074 14.53144769606173 -11 -6 -1
315 1 1 0.5897 2.3996365463516733 18.16476619033208 19.055292281351186 -1 -1 -2
642 1 1 0.5897 4.1473716207759725 16.996157364852326 18.79335798580324 4 2 -5
314 1 1 0.5897 2.9739273709105847 19.127781783028233 18.0377594513798 -1 -1 -2
333 1 1 0.5897 3.5862728886097712 17.662628835884874 21.22722541754986 3 -3 -5
332 1 1 0.5897 4.39212933148913 18.715377606593535 20.495872508773346 3 -3 -5
313 1 2 -1.1794 3.1787995435652823 18.328842391313238 18.523793681391297 -1 -1 -2
516 1 1 0.5897 1.221607656077873 18.615013587401066 16.244052195941954 -2 -5 -2
408 1 1 0.5897 1.3786214490816011 20.093832916381288 20.756143520480713 -4 -4 3
609 1 1 0.5897 4.08595420638154 20.951678415614857 19.432126368752257 3 6 3
6 1 1 0.5897 1.601696959399231 21.295817640547398 18.64290943495962 -1 -2 0
607 1 2 -1.1794 3.510401842509842 21.715938655638503 19.397883558216115 3 6 3
331 1 2 -1.1794 4.046157307776062 18.49169985423702 21.36003249536239 3 -3 -5
575 1 1 0.5897 3.0193360844164707 21.156688898405996 16.637996910025254 1 -3 -3
574 1 2 -1.1794 3.7014382560662122 20.504019829331362 16.796943080647722 1 -3 -3
207 1 1 0.5897 9.053457068268443 6.117132769728343 5.942759176406124 -5 1 0
715 1 2 -1.1794 7.024331591922145 2.4169106109091287 3.8827494858424214 7 -9 -5
382 1 2 -1.1794 5.826607183538419 4.868766806135522 3.47675185223557 -6 -2 -1
266 1 1 0.5897 6.7669087990306735 6.7719936488385395 1.5333519321905185 0 -1 2
131 1 1 0.5897 8.100099192504175 5.186938533453052 1.558306409032897 -1 1 1
383 1 1 0.5897 6.322744413008567 5.2289364630052635 2.741460985315124 -6 -2 -1
74 1 1 0.5897 5.0876560079184205 3.7014552873873496 5.7095483351288046 0 -2 4
265 1 2 -1.1794 6.613008159228043 5.985063038735439 1.0103268972493218 0 -1 2
384 1 1 0.5897 6.233466851025669 4.01920033097332 3.6476606838954693 -6 -2 -1
279 1 1 0.5897 5.4902665257955405 6.090498893252937 4.932985860413187 2 2 -1
130 1 2 -1.1794 8.855866015124358 4.788851475513816 1.9905548398886237 -1 1 1
405 1 1 0.5897 7.717835903650542 4.291286144446637 5.867945464887423 6 -2 1
205 1 2 -1.1794 8.72245896026577 5.913808736284816 5.067758220587993 -5 1 0
277 1 2 -1.1794 5.1891956151760645 6.816665639515468 5.479363778642323 2 2 -1
717 1 1 0.5897 7.7399076030943235 2.0965027150267943 4.432129673134965 7 -9 -5
746 1 1 0.5897 8.979379598261714 6.176308220639406 8.54216755859426 3 -1 -7
521 1 1 0.5897 8.630975095536861 3.976407286308029 10.714663094670609 -4 1 -1
258 1 1 0.5897 6.390938528150034 3.4003947159259758 7.818982352303627 1 -1 0
256 1 2 -1.1794 5.609832792117376 3.523543588504416 8.358648640100508 1 -1 0
403 1 2 -1.1794 7.790612083308176 3.608643934227811 6.535175436880548 6 -2 1
758 1 1 0.5897 8.873026815964733 6.194958517113654 10.571585698062904 1 3 5
26 1 1 0.5897 5.710800764648119 4.579595390914497 9.894408246943467 0 7 2
404 1 1 0.5897 8.525547654433254 3.8854949987186207 7.08264124192752 6 -2 1
196 1 2 -1.1794 5.1573551176790735 2.149196964305046 11.073616923080605 -1 -6 -1
257 1 1 0.5897 5.163422179353284 2.6770978240398478 8.331480246947255 1 -1 0
25 1 2 -1.1794 5.528280426751422 5.311147728603672 10.484354944165382 0 7 2
286 1 2 -1.1794 7.893717701139759 2.6176345397085052 9.517688231947382 3 1 3
287 1 1 0.5897 6.969568956057277 2.8617469197837853 9.571412637256996 3 1 3
177 1 1 0.5897 6.972401251488502 2.053555208734238 6.826874036899355 0 -4 9
365 1 1 0.5897 6.74510110707857 6.115015221134651 15.634973785518314 3 3 5
255 1 1 0.5897 6.294946527132176 4.943020877580517 12.22864037711347 3 6 -7
309 1 1 0.5897 8.964418292174791 5.694541539417568 14.678099158362931 2 3 -2
254 1 1 0.5897 7.309334730600147 4.272994629011636 13.131208436678396 3 6 -7
253 1 2 -1.1794 6.622085127231352 4.939458159641377 13.128338007297678 3 6 -7
603 1 1 0.5897 7.696797274118171 2.7289257955296433 15.978822775439445 -1 2 1
625 1 2 -1.1794 8.567469625622586 2.916028391519631 13.979587406266857 1 -1 3
770 1 1 0.5897 6.005618886523015 4.232246739004729 14.580523120429856 3 -3 0
626 1 1 0.5897 9.026207158465233 3.7428366119465477 14.129407858449268 1 -1 3
769 1 2 -1.1794 5.510608931307528 3.6464242109918894 15.153472223182861 3 -3 0
364 1 2 -1.1794 7.571965116362484 5.687119145600967 15.85788486295232 3 3 5
211 1 2 -1.1794 5.1210672375544695 6.630543517840123 15.82713995920254 6 2 5
771 1 1 0.5897 4.909824639683518 3.187462587628026 14.566190140995053 3 -3 0
672 1 1 0.5897 7.637918450207604 6.7148248050386625 12.890010360736088 5 1 -1
453 1 1 0.5897 8.675516944630672 4.600396082699451 19.117766688309366 1 3 2
645 1 1 0.5897 5.261900818954289 3.3665514453902494 16.815712699583557 5 -1 -4
452 1 1 0.5897 7.257605458595742 4.137500858977557 19.378306738285325 1 3 2
113 1 1 0.5897 6.272488902408078 2.8270021925186883 21.254504746122798 -3 -2 3
602 1 1 0.5897 7.80923175645526 3.080969884563586 17.447140644742774 -1 2 0
509 1 1 0.5897 7.048799037521891 5.9869377996439 18.59077267950346 3 0 3
451 1 2 -1.1794 7.835782738971094 4.451487108508825 18.682836014320387 1 3 2
601 1 2 -1.1794 8.128881541822969 2.4621214362065653 16.79037317475828 -1 2 1
112 1 2 -1.1794 7.040908003989608 2.895139071090509 20.687567189218207 -3 -2 3
366 1 1 0.5897 7.820661048709616 6.069228271672508 16.699701620902687 3 3 5
114 1 1 0.5897 7.740249130823313 2.4631113185758826 21.17824551451138 -3 -2 3
212 1 1 0.5897 5.435473162385071 6.4212474477047525 16.70682191055706 6 2 5
643 1 2 -1.1794 4.958721143271932 3.4185379512415306 17.722282166688196 5 -1 -4
267 1 1 0.5897 5.677387614959586 6.009811382186464 21.351397059970772 0 -1 1
564 1 1 0.5897 5.541817807600775 9.150872210677274 1.8886375652672103 1 2 6
487 1 2 -1.1794 6.302080304701291 9.740080104128022 5.330250806485967 -1 -5 2
563 1 1 0.5897 5.753258528414155 10.570356585850272 2.371252630754643 1 2 6
54 1 1 0.5897 7.66837930899352 7.081252484451586 4.004946841630247 -2 -3 3
52 1 2 -1.1794 7.2250022948206825 7.566267192381455 3.308757473172377 -2 -3 3
488 1 1 0.5897 6.368291469098908 9.218927004382564 4.529929871849628 -1 -5 2
53 1 1 0.5897 7.887922776662502 8.173398429208923 2.9794790964878355 -2 -3 3
562 1 2 -1.1794 5.966212741765695 9.97570140275396 1.6518617876535457 1 2 6
401 1 1 0.5897 6.878267357410202 11.624333030379066 5.48880146832543 -3 -3 1
857 1 1 0.5897 5.756459968101037 8.376409992687499 9.827247552287403 1 2 -2
570 1 1 0.5897 7.160385393889112 10.746913332321773 8.59451514041886 4 2 1
856 1 2 -1.1794 5.272452753695827 7.775457694670854 9.260560136904111 1 2 -2
395 1 1 0.5897 6.263389550862168 8.002567702094249 7.851775161383912 4 0 4
394 1 2 -1.1794 6.877807570343041 7.983645097807728 7.117845210768379 4 0 4
757 1 2 -1.1794 8.574657576898826 7.011308295670997 10.170270852850116 1 3 5
569 1 1 0.5897 8.482767330230127 10.288810970172053 8.016593872267094 4 2 1
755 1 1 0.5897 8.86270933731257 8.232183544633124 7.395928516727737 -1 0 -5
396 1 1 0.5897 6.417531801539229 7.4997602172816515 6.431916198237682 4 0 3
568 1 2 -1.1794 7.967738889102487 11.075095549474737 8.198308485229362 4 2 1
858 1 1 0.5897 5.344618801140389 6.9253919159805815 9.694921070468128 1 2 -2
489 1 1 0.5897 6.681516651853931 9.183951582520084 6.010880609722856 -1 -5 2
181 1 2 -1.1794 6.708889337412755 9.79173241970301 10.518548543521995 -3 0 -2
183 1 1 0.5897 7.643276456794096 9.988242665784927 10.587822919038862 -3 0 -2
182 1 1 0.5897 6.2837276117459 10.450337850266191 11.068063403231788 -2 0 -2
578 1 1 0.5897 6.262538353880812 9.474177370606188 15.169562916193499 6 2 -3
577 1 2 -1.1794 6.05541137215346 9.943052056615763 14.360997273037954 6 2 -3
275 1 1 0.5897 5.298782674901291 7.44370587120841 12.055617652905319 -4 5 -2
380 1 1 0.5897 8.949467529904872 8.397243049506958 14.177497348362685 8 0 1
579 1 1 0.5897 5.914646720727068 9.252876572803594 13.712659301679357 6 2 -3
671 1 1 0.5897 7.832927585892003 7.895925944064373 11.962910933909386 5 1 -1
622 1 2 -1.1794 8.586492923504572 11.361576335059974 13.783557717721386 5 -2 0
624 1 1 0.5897 7.742578493209612 10.912584967165825 13.73117565407411 5 -2 0
670 1 2 -1.1794 7.58198797590801 7.6700176009589205 12.85872756133129 5 1 -1
381 1 1 0.5897 8.663657020107713 8.868594826184859 15.587745486468906 8 0 1
623 1 1 0.5897 8.987799564358593 11.025517048202671 14.585123660668163 5 -2 0
508 1 2 -1.1794 6.668629840447322 6.862952479115919 18.523244592037756 3 0 3
510 1 1 0.5897 6.0394307769282936 6.90770733107714 19.243383041186114 3 0 3
832 1 2 -1.1794 6.923520099340141 9.989093609845025 19.718874702049696 2 -1 -1
399 1 1 0.5897 8.326172416405814 7.8977221908661495 19.75387216964822 4 3 -6
834 1 1 0.5897 6.190368858755113 10.114292934256973 19.116077265396257 2 -1 -1
84 1 1 0.5897 7.138639130748689 9.568011591601117 17.183127220346982 -5 -1 -6
82 1 2 -1.1794 7.212815871691556 8.759454091123047 16.67594785821984 -5 -1 -6
83 1 1 0.5897 6.921851588781462 8.072358491434077 17.27571995867467 -5 -1 -6
833 1 1 0.5897 6.51264167875506 9.875066083511125 20.576025064313264 2 -1 -1
815 1 1 0.5897 7.4462963711795025 11.468723429198793 20.294973257074766 -4 9 -3
368 1 1 0.5897 8.79602121852872 11.715455172714446 16.62055441689867 5 1 -4
795 1 1 0.5897 6.9604971729472815 15.804462784434106 4.377063357767323 -4 -2 4
793 1 2 -1.1794 7.645877201935769 16.188704696466058 3.830160184447983 -4 -2 4
794 1 1 0.5897 7.432209508795561 15.903264695759743 2.941700838610815 -4 -2 4
285 1 1 0.5897 7.982782633036597 12.313325818412782 3.853804780852822 6 1 -1
765 1 1 0.5897 5.837227395665846 12.467564262863677 3.059607351539191 -6 1 -5
448 1 2 -1.1794 7.696515558231092 15.680286296041446 1.0544273935221102 8 -6 -4
284 1 1 0.5897 8.466732686716067 13.351589112679195 2.8636842949022254 6 1 -1
751 1 2 -1.1794 5.610355250852042 15.066666072791136 5.269053627628457 1 -1 2
763 1 2 -1.1794 5.071906720343152 11.895249991876227 3.1164722387056734 -6 1 -5
283 1 2 -1.1794 7.984719542981405 12.52640542283111 2.920486518845335 6 1 -1
753 1 1 0.5897 5.249038031051131 14.326234464600985 5.756603307316102 1 -1 2
816 1 1 0.5897 7.402655573588884 12.2831369977569 1.0282964335906128 -4 9 -2
400 1 2 -1.1794 7.4581194671315005 12.348474029458146 5.725294895367904 -3 -3 1
119 1 1 0.5897 5.937267248305539 14.946234255099261 0.8950429549177261 0 -3 0
524 1 1 0.5897 8.872251862223488 13.75251715987941 5.533761463102707 3 0 4
525 1 1 0.5897 8.73359569913494 15.077029366431669 4.81328519332312 3 0 4
752 1 1 0.5897 5.093127188699742 15.099380975253176 4.46413576923036 1 -1 2
310 1 2 -1.1794 5.544578172670797 15.037710372016841 10.955706075164674 2 4 4
93 1 1 0.5897 7.662754469288381 14.80214228513529 6.974544744203977 4 0 0
312 1 1 0.5897 5.520294477189485 15.967428345340117 10.728632013223667 2 4 4
91 1 2 -1.1794 7.166119234203685 14.847195388037424 7.791756621228544 4 0 0
810 1 1 0.5897 5.5562630346744974 14.344598104270997 8.104579338271472 4 1 0
92 1 1 0.5897 7.587074774864634 15.54784553285568 8.290127602682956 4 0 0
820 1 2 -1.1794 9.075701067132297 16.4779774037289 9.422951115749775 -2 3 1
311 1 1 0.5897 5.194563136699986 14.592836183258703 10.183645694906053 2 4 4
282 1 1 0.5897 7.979311470396504 12.31826522394117 9.484484746134331 -2 -2 2
281 1 1 0.5897 7.53142600768676 13.74244383917075 9.232008805597188 -2 -2 2
280 1 2 -1.1794 7.732309426960026 13.125524923347717 9.935983182880813 -2 -2 2
152 1 1 0.5897 5.005593000343043 16.51270411290413 6.099376546582926 3 2 -4
809 1 1 0.5897 4.976929331106294 13.0011920865195 8.494802848067774 4 1 0
402 1 1 0.5897 7.677514033215324 12.190228540662906 6.643633000420046 -3 -3 1
511 1 2 -1.1794 5.271155651002579 16.131317558080898 14.14227568486442 -2 4 -2
804 1 1 0.5897 6.78350550804049 13.860849315911544 14.999539132084852 5 -2 -5
802 1 2 -1.1794 6.037149281592035 13.286357996315356 14.828071923857115 5 -2 -5
803 1 1 0.5897 6.230383073798393 12.888788084139069 13.978896598568182 5 -2 -5
847 1 2 -1.1794 7.431135972966606 15.501435224237206 12.658610950711672 3 -1 7
864 1 1 0.5897 6.090207310267638 12.520307228906487 11.32899471999134 6 0 0
849 1 1 0.5897 6.834848920323423 15.192205417086319 11.976477126060825 3 -1 7
862 1 2 -1.1794 5.701053169622766 12.022849664088154 12.048434099896978 6 0 0
512 1 1 0.5897 5.928937863188646 15.820210682746367 13.520152779492344 -2 4 -2
848 1 1 0.5897 8.084351959636898 14.806267433150069 12.739589537977196 3 -1 7
171 1 1 0.5897 8.766540734743817 13.556234900078465 11.245955597276833 -7 4 0
220 1 2 -1.1794 8.73500782685116 14.563184043906286 15.46616826582735 1 -3 4
170 1 1 0.5897 9.036132243878942 12.7403703252487 12.492648177465705 -7 4 0
518 1 1 0.5897 6.11177432732818 16.68562357445306 15.753776389459011 3 -3 -2
20 1 1 0.5897 6.988548958454388 12.629399842964503 17.785337087980587 -4 1 -1
237 1 1 0.5897 6.8063624807045855 13.521241817414243 19.6140235729301 0 -3 -5
814 1 2 -1.1794 7.7732706027949305 12.278123652694198 20.687987311406523 -4 9 -3
236 1 1 0.5897 7.664867891925239 14.174718970076166 18.55172904881313 0 -3 -5
235 1 2 -1.1794 6.753208964059293 14.03839470083068 18.810148792339803 0 -3 -5
19 1 2 -1.1794 6.986449964359096 11.891645646003363 17.175253780645313 -4 1 0
641 1 1 0.5897 5.452655573647461 16.307846270094352 18.454214033383444 4 2 -5
450 1 1 0.5897 7.619772193519564 16.393237505817197 20.96249845400437 8 -6 -5
120 1 1 0.5897 4.908034536118272 14.936040361085677 20.326935563123932 0 -3 -1
222 1 1 0.5897 9.014496752021882 14.175502706707505 16.295679435019807 1 -3 4
118 1 2 -1.1794 5.07303650121404 14.603312459648494 21.209295811977988 0 -3 -1
21 1 1 0.5897 6.589457198784813 12.241174435974818 16.377306727632206 -4 1 0
449 1 1 0.5897 8.521148978685243 15.248208471083235 21.373639781441852 8 -6 -5
485 1 1 0.5897 7.3178802928473115 19.128229542509963 2.58237371422545 1 0 0
530 1 1 0.5897 7.451882072279177 18.62013206024691 5.256850953621345 -2 -3 -6