LAMMPS data file via write_data, version 30 Jul 2021, timestep = 26750000

864 atoms
2 atom types
576 bonds
1 bond types
288 angles
1 angle types

0.13461052500974624 18.07296187499209 xlo xhi
0.06581014891586356 23.563367651099774 ylo yhi
0.1674838717849294 22.04571192821086 zlo zhi

Masses

1 1.00794
2 15.9994

Atoms # full

707 1 1 0.5897 3.4032249612608165 1.8318889304912003 3.795638413378772 0 0 0
706 1 2 -1.1794 3.283428700288323 1.6532796388339333 2.8628945171040674 0 0 0
30 1 1 0.5897 5.119943989644182 4.030291222346033 2.4120199690117246 0 0 0
708 1 1 0.5897 2.5306198028484803 2.188097059830474 2.610881974410499 0 0 0
29 1 1 0.5897 4.625053308586816 2.6149369927640977 2.2024964188921152 0 0 0
28 1 2 -1.1794 5.30327708306225 3.2291253028686606 1.9213054891989676 0 0 0
3 1 1 0.5897 1.172585361602991 4.065092782441388 2.4090020103540115 0 0 0
1 1 2 -1.1794 1.0485851417321987 3.1784707096556644 2.070177947642356 0 0 0
495 1 1 0.5897 8.170083508224087 2.4275515382844954 2.856290600942849 0 0 0
494 1 1 0.5897 6.662549596323811 2.415378969120642 2.7179818726825666 0 0 0
493 1 2 -1.1794 7.391704679961211 1.9261054411207528 3.0990689962423805 0 0 0
136 1 2 -1.1794 5.143115133065847 5.6917138212884435 2.973018189256468 0 0 0
846 1 1 0.5897 7.402015789027557 1.8213260016600779 4.961301547125231 0 0 0
20 1 1 0.5897 1.1504390832683111 2.7911840311856952 0.33039191410007 0 0 0
597 1 1 0.5897 1.0942821513981653 5.60443123084831 4.192616446361815 0 0 0
668 1 1 0.5897 5.255471047973136 3.2837541124377454 0.18988421851051202 0 0 0
819 1 1 0.5897 7.4167249388888195 0.18052645656189045 2.6528668410827585 0 0 0
137 1 1 0.5897 5.2243020451776605 5.569357887332413 3.918902540544671 0 0 0
595 1 2 -1.1794 1.0390256088946102 5.638591007826906 3.2376082945763365 0 0 0
2 1 1 0.5897 0.15565916597283547 2.946666100139266 2.325532712122637 0 0 0
487 1 2 -1.1794 3.2132794927656807 1.8064735988309804 5.582881563743763 0 0 0
83 1 1 0.5897 4.435548870866906 2.5684983386391433 6.432593528205084 0 0 0
183 1 1 0.5897 0.8963409322458781 4.803174041898381 6.2699156625928065 0 0 0
82 1 2 -1.1794 5.108573365780845 3.0903388021527713 6.869609944284934 0 0 0
35 1 1 0.5897 0.9613951240716562 3.9631810067085906 9.6461923007877 0 0 0
674 1 1 0.5897 3.5952849505681876 2.0191871634280503 10.113259707607604 0 0 0
356 1 1 0.5897 7.466643452225315 0.9014448655159166 9.965443891046682 0 0 0
489 1 1 0.5897 3.0889826568528767 0.8844384280152155 5.808017028005966 0 0 0
845 1 1 0.5897 7.446399880792174 0.890783687945842 6.154662344538868 0 0 0
784 1 2 -1.1794 0.9889783737266323 3.050282485841298 6.5259022347697515 0 0 0
673 1 2 -1.1794 2.8579801020720668 1.5507437642850863 10.504667056953483 0 0 0
112 1 2 -1.1794 0.7394363541843214 5.77216362134264 10.309224302286584 0 0 0
274 1 2 -1.1794 5.057653194871914 2.9095748044164766 9.53978284066957 0 0 0
678 1 1 0.5897 5.155974278449576 4.672715410604941 9.950686875128595 0 0 0
686 1 1 0.5897 5.160809710741489 4.765960384053481 6.172532371237776 0 0 0
36 1 1 0.5897 1.5731558264014593 2.585211737958565 9.78385507070612 0 0 0
355 1 2 -1.1794 7.635069034380395 1.8202922476778471 10.174323496876676 0 0 0
176 1 1 0.5897 8.892498223525816 2.965039960676668 9.512757759579804 0 0 0
84 1 1 0.5897 5.935885413531085 2.7028298949633673 6.58387301020989 0 0 0
276 1 1 0.5897 5.928603461786518 2.635982745409934 9.82760761553797 0 0 0
675 1 1 0.5897 2.839968492768965 0.7086622457679101 10.049858898954325 0 0 0
275 1 1 0.5897 5.113932009992745 2.9231983970340054 8.584319268134779 0 0 0
419 1 1 0.5897 8.997386711189087 2.691737851489742 6.346168634620324 0 0 0
785 1 1 0.5897 0.9421266726289741 2.9322225595735114 7.474651807218162 0 0 0
488 1 1 0.5897 2.4291719649089014 2.2427301615536783 5.916221392201665 0 0 0
34 1 2 -1.1794 0.8582541065988449 3.0567616637014563 9.356284986270365 0 0 0
676 1 2 -1.1794 5.098042908681204 5.565506861302864 10.291045805542446 0 0 0
844 1 2 -1.1794 7.404180843920533 1.817463791560245 5.918518982754751 0 0 0
786 1 1 0.5897 0.1557425684082716 2.7097990696930636 6.200258700974347 0 0 0
685 1 2 -1.1794 5.223663403915261 5.611502357091252 5.728249169696021 0 0 0
181 1 2 -1.1794 0.9128458234063584 5.73939369113272 6.0711656540853625 0 0 0
166 1 2 -1.1794 3.046276283024173 2.009734685964708 13.19791977865363 0 0 0
167 1 1 0.5897 3.0171067635937954 1.819091422507641 12.260335220279325 0 0 0
457 1 2 -1.1794 5.299785126750126 3.456669121028515 13.97694983751278 0 0 0
458 1 1 0.5897 5.94136292232406 2.8302859069357322 13.641852756504775 0 0 0
459 1 1 0.5897 4.4516684658325945 3.0816194664496006 13.739704487262621 0 0 0
762 1 1 0.5897 5.210878588330727 5.042754735690341 13.213123490820134 0 0 0
594 1 1 0.5897 8.118463602363821 2.303285362797 13.3577598305427 0 0 0
168 1 1 0.5897 2.1956914444832707 2.4050021193251463 13.389032822444765 0 0 0
468 1 1 0.5897 0.731697513112063 3.1664405341490713 14.98385623262052 0 0 0
466 1 2 -1.1794 0.8397837962178023 3.2139173409612667 14.033951989023912 0 0 0
593 1 1 0.5897 7.449024184267201 0.9562327813019057 13.186594630981798 0 0 0
592 1 2 -1.1794 7.354234169918546 1.8823785343435049 12.96399389040209 0 0 0
365 1 1 0.5897 0.5827206434766681 4.836536659720193 13.39046418067198 0 0 0
71 1 1 0.5897 5.260283425434762 3.376011135542882 15.826333349132716 0 0 0
761 1 1 0.5897 5.243574097308658 5.873456005889438 11.947873473628915 0 0 0
364 1 2 -1.1794 0.5344046038728751 5.733376700344732 13.059352515708001 0 0 0
737 1 1 0.5897 2.8443498435578847 0.20536394622969986 13.684998960311306 0 1 0
113 1 1 0.5897 0.6783300182118084 5.848703978772857 11.261413738977458 0 0 0
357 1 1 0.5897 7.793893929074228 1.826606277457003 11.11824967230147 0 0 0
754 1 2 -1.1794 7.642326279222933 1.794634389785762 17.39479460187573 0 0 0
571 1 2 -1.1794 0.801621576141772 5.478956114940514 17.76816052665003 0 0 0
133 1 2 -1.1794 0.8466898202696338 2.8779552349882493 16.923692630561824 0 0 0
755 1 1 0.5897 7.715199611139306 1.9937945413539317 18.328224258975936 0 0 0
290 1 1 0.5897 3.0848891794055464 0.8574268097741425 17.291146331483752 0 0 0
42 1 1 0.5897 7.69908657673134 1.3378884928079415 20.3892842657147 0 0 0
289 1 2 -1.1794 3.1586284603227175 1.7043512308487427 17.731105987432144 0 0 0
41 1 1 0.5897 6.957594623578088 2.6548303598396745 20.30064313768949 0 0 0
143 1 1 0.5897 5.453197004482001 5.02195295429909 20.616258636796353 0 0 0
569 1 1 0.5897 2.58064866179901 1.9681593788793685 20.730465809670996 0 0 0
291 1 1 0.5897 2.3316905771982697 2.1469292383839584 17.53991368418322 0 0 0
570 1 1 0.5897 3.3046887457747904 1.5994552528492008 19.453047682676107 0 0 0
40 1 2 -1.1794 7.773539137242601 2.226618471353502 20.04156463791233 0 0 0
19 1 2 -1.1794 1.087697255443451 2.7409820857185805 21.254779211420043 0 0 0
667 1 2 -1.1794 5.356343755999621 3.3137081996297204 21.116701021667296 0 0 0
70 1 2 -1.1794 5.397506419337637 3.259531763582473 16.76647549980114 0 0 0
568 1 2 -1.1794 3.388161975931043 1.5694029182433906 20.40613950838994 0 0 0
756 1 1 0.5897 6.857283345876481 2.2625411735693146 17.110147445769982 0 0 0
669 1 1 0.5897 4.790727794843886 2.6124994776844352 20.793199498648434 0 0 0
278 1 1 0.5897 5.231007904733414 4.894081249649017 17.380447638171304 0 0 0
646 1 2 -1.1794 0.9258914067433299 5.487543073070314 20.551321501138922 0 0 0
134 1 1 0.5897 0.7864902961771262 3.7542681706299206 17.30413664057579 0 0 0
72 1 1 0.5897 4.57764594921048 2.8806628596936137 17.083560484650846 0 0 0
21 1 1 0.5897 1.038385057995594 3.6532735809764922 20.969163905733197 0 0 0
572 1 1 0.5897 1.4837058980581752 5.904986483475287 17.249012946981047 0 0 0
648 1 1 0.5897 1.055535383642195 5.475633582592674 19.603001067207806 0 0 0
599 1 1 0.5897 9.086803704729732 2.504544893291445 16.713223928800666 0 0 0
647 1 1 0.5897 1.714364075803334 5.906706225588436 20.896094431544938 0 0 0
277 1 2 -1.1794 5.1256165363418305 5.8056943405469035 17.652719679733558 0 0 0
323 1 1 0.5897 7.619160575590065 0.14894827026237323 16.978737837415856 0 1 0
253 1 2 -1.1794 3.0108108544930583 7.305104261145246 2.2679577442089043 0 0 0
123 1 1 0.5897 3.1247958396425095 8.976592508819364 2.994026929818559 0 0 0
121 1 2 -1.1794 3.136283893412078 9.917327887013144 3.170572150637678 0 0 0
122 1 1 0.5897 3.007355043917383 9.985550046549255 4.116616532073421 0 0 0
44 1 1 0.5897 1.6295233572465913 10.579685783646987 2.451751954634294 0 0 0
218 1 1 0.5897 6.057074718271631 10.559884524871093 2.32768752141663 0 0 0
45 1 1 0.5897 0.6565515787605235 11.739137130818659 2.4204546911136426 0 0 0
219 1 1 0.5897 4.548832375879067 10.690055805271424 2.3140750433644013 0 0 0
43 1 2 -1.1794 0.7586480853423992 10.828906267283248 2.142358919300177 0 0 0
415 1 2 -1.1794 7.331627263466891 7.2045842280346175 2.1871335339104916 0 0 0
396 1 1 0.5897 0.7254767194606656 10.855813769066767 0.373390301736479 0 0 0
254 1 1 0.5897 3.043355695029842 7.235509064004465 1.3138293480736274 0 0 0
217 1 2 -1.1794 5.3395745346697385 11.002603033917193 1.8744246238950089 0 0 0
66 1 1 0.5897 7.486166194475356 9.754782593812742 3.948528171058269 0 0 0
65 1 1 0.5897 7.391414782771478 8.872342671880993 2.722026298401695 0 0 0
64 1 2 -1.1794 7.5343975126866685 9.77925777117841 2.992836754189884 0 0 0
416 1 1 0.5897 6.570063674744716 6.637991380970883 2.3106585667648387 0 0 0
255 1 1 0.5897 2.214854813878368 6.834733309323828 2.5158930216997644 0 0 0
417 1 1 0.5897 8.07559626206329 6.670903351794473 2.466359061524103 0 0 0
773 1 1 0.5897 9.027325219873546 10.457864982537615 2.4762528911127437 0 0 0
162 1 1 0.5897 7.54312390262344 7.246917352923046 0.34748888613999795 0 0 1
138 1 1 0.5897 4.3696755280909825 6.245848109384926 2.8682192274416196 0 0 0
256 1 2 -1.1794 2.783329811334193 9.755729007664334 10.519320155746286 0 0 0
12 1 1 0.5897 2.9758498911325413 7.858716327281648 6.295671075540611 0 0 0
10 1 2 -1.1794 3.1429999565814044 6.990625569912818 6.66276303819047 0 0 0
114 1 1 0.5897 1.5676733473025524 6.197444663298379 10.086937749140683 0 0 0
526 1 2 -1.1794 7.309368706495095 7.183774941317048 9.583671636085683 0 0 0
577 1 2 -1.1794 5.197871187576884 10.85675255340255 7.050365431349118 0 0 0
145 1 2 -1.1794 7.3095782830538045 7.146770631475181 6.734688776097611 0 0 0
712 1 2 -1.1794 7.249753640562727 9.701128114643081 5.650687007744635 0 0 0
795 1 1 0.5897 3.6878719480062685 10.189759494538373 6.192195429229263 0 0 0
580 1 2 -1.1794 5.23301028951406 10.948918761388267 9.820196587453559 0 0 0
650 1 1 0.5897 3.1293637903219937 7.106910774764046 8.54242613186235 0 0 0
822 1 1 0.5897 8.32243420192547 10.164442110178275 10.20920292090208 0 0 0
527 1 1 0.5897 7.372637019498228 8.101112798187568 9.849690753951899 0 0 0
15 1 1 0.5897 1.3331583239193836 10.554417201266313 9.847502368222976 0 0 0
582 1 1 0.5897 5.20467228970087 10.847682005942309 8.868774399863252 0 0 0
820 1 2 -1.1794 7.546516776377867 9.700149940532189 10.523283008577508 0 0 0
581 1 1 0.5897 6.056613712745332 10.53670230779804 10.080976136817727 0 0 0
147 1 1 0.5897 7.240376350997425 7.141716527537394 7.689387555339998 0 0 0
649 1 2 -1.1794 2.9729889658204995 7.120563760222426 9.486682279068882 0 0 0
528 1 1 0.5897 8.14013710446085 6.7961809107291264 9.85907119681747 0 0 0
714 1 1 0.5897 7.326395229460545 8.816353083509611 6.007917589069861 0 0 0
258 1 1 0.5897 3.5602128234862214 10.201407698480917 10.181568766845986 0 0 0
13 1 2 -1.1794 0.6854702168080551 11.066784250976166 9.36349248834063 0 0 0
257 1 1 0.5897 2.832877076577472 8.874011425330972 10.15000273325543 0 0 0
146 1 1 0.5897 6.576046473070324 6.6080738547514075 6.438046190939953 0 0 0
578 1 1 0.5897 5.8363235949941945 10.349350765846646 6.549186207722624 0 0 0
550 1 2 -1.1794 0.6516238708646546 10.970675668520796 6.609840751660732 0 0 0
165 1 1 0.5897 8.682790453410531 6.238259170221548 6.21329200203548 0 0 0
651 1 1 0.5897 3.685544798032487 6.5985624358568655 9.855518743289071 0 0 0
11 1 1 0.5897 2.3272649056250034 6.509740356959856 6.5228285231522944 0 0 0
551 1 1 0.5897 0.7449549382489277 11.180181897508566 7.539178188147622 0 0 0
794 1 1 0.5897 2.1836419854865143 10.027775463543907 6.137573471840959 0 0 0
713 1 1 0.5897 7.988565603396874 10.177641316830181 6.029308154739077 0 0 0
793 1 2 -1.1794 2.998963147616513 9.636988688535297 5.82326599733093 0 0 0
687 1 1 0.5897 4.423625311047137 6.0739047818220575 5.978007905665204 0 0 0
579 1 1 0.5897 5.2048793572562735 11.722219944046747 6.641470532248212 0 0 0
677 1 1 0.5897 5.892908717109708 5.994963889420497 9.974804681059975 0 0 0
826 1 2 -1.1794 7.492502581967079 6.93757567788771 13.911290471935091 0 0 0
827 1 1 0.5897 6.674603957380187 6.583424475098773 13.562188484250141 0 0 0
332 1 1 0.5897 2.84870208902629 7.796737866428979 13.572297100740785 0 0 0
797 1 1 0.5897 3.0542644102468066 9.709546354182809 12.266536364966234 0 0 0
796 1 2 -1.1794 3.05514201579426 9.674360063139783 13.22311724529269 0 0 0
798 1 1 0.5897 2.4150959292276037 10.334935118805904 13.48816762551007 0 0 0
722 1 1 0.5897 4.711046599269227 10.411303086505528 13.73522589614552 0 0 0
261 1 1 0.5897 0.8566914672366751 11.05101914667955 14.970716129014638 0 0 0
723 1 1 0.5897 5.512209193686864 10.965467684790712 14.89411074566011 0 0 0
828 1 1 0.5897 7.425278210808303 6.808837790752156 14.857422850371503 0 0 0
259 1 2 -1.1794 0.7933756222045394 11.11782995834077 14.017938441456637 0 0 0
331 1 2 -1.1794 2.8415249990170834 6.871774907422293 13.818623483099579 0 0 0
225 1 1 0.5897 2.85134950688351 6.816463034605771 15.548147896800224 0 0 0
721 1 2 -1.1794 5.427943697041276 11.011046136094796 13.941697743465475 0 0 0
475 1 2 -1.1794 7.689247418214347 9.617278450932595 13.393414280852149 0 0 0
476 1 1 0.5897 6.88129428794507 10.097655553919548 13.574263593714536 0 0 0
477 1 1 0.5897 7.496876872521302 8.716897859321698 13.655305416293581 0 0 0
333 1 1 0.5897 3.6213786326315898 6.5061444679146 13.401011266019063 0 0 0
366 1 1 0.5897 1.35114407174392 6.140290286137267 13.348581973489031 0 0 0
851 1 1 0.5897 9.02652006801762 6.075581440393017 13.404463391210793 0 0 0
821 1 1 0.5897 7.575588130900728 9.800483895272011 11.474788967757705 0 0 0
760 1 2 -1.1794 5.196217203948263 5.947560444299469 12.901038814834399 0 0 0
223 1 2 -1.1794 2.7999780584989375 6.819232077478677 16.503987218068495 0 0 0
447 1 1 0.5897 0.1351675806270283 10.401465520179714 17.121444422259316 1 0 0
141 1 1 0.5897 7.628777773481269 9.09353189004677 20.686273420149092 0 0 0
361 1 2 -1.1794 5.126946667720627 10.78563229580688 20.957936022853396 0 0 0
9 1 1 0.5897 6.87102545020897 9.98692306009375 17.358955746769894 0 0 0
4 1 2 -1.1794 3.064640506177347 7.135516351961371 21.39073740123351 0 0 0
627 1 1 0.5897 2.458835593955273 9.976006966402965 17.052271334260674 0 0 0
394 1 2 -1.1794 0.7715955070346237 10.92838621179633 21.298267122485655 0 0 0
521 1 1 0.5897 6.550136874274397 6.568467378111894 16.939301820361933 0 0 0
140 1 1 0.5897 6.763303222497819 10.312624303366208 20.448021603330467 0 0 0
711 1 1 0.5897 8.697171699166784 5.966615754836515 17.215149284530703 0 0 0
690 1 1 0.5897 2.1336748351729176 10.090128678808334 20.51499519383149 0 0 0
625 1 2 -1.1794 3.225966292041401 9.47684175873129 17.33262809940809 0 0 0
688 1 2 -1.1794 2.901350923999949 9.59399351821439 20.230772239325184 0 0 0
224 1 1 0.5897 2.854308397476692 7.744138761000627 16.744560741978987 0 0 0
522 1 1 0.5897 7.324759614000163 7.8690550058627045 16.960756230364794 0 0 0
689 1 1 0.5897 3.6473154595544757 10.111119798237342 20.534708232085663 0 0 0
161 1 1 0.5897 6.749906710563425 6.859756476389727 20.99572546918312 0 0 0
626 1 1 0.5897 3.141524753711844 9.42147438395295 18.284499379093 0 0 0
139 1 2 -1.1794 7.647221197146276 9.972832187715992 20.308410357424478 0 0 0
6 1 1 0.5897 3.0265600578674676 7.990268802895932 20.96152510111463 0 0 0
680 1 1 0.5897 4.775112430777321 10.382105932631031 16.919271773096476 0 0 0
8 1 1 0.5897 7.720901121224373 9.580585242236141 18.544104120644995 0 0 0
7 1 2 -1.1794 7.658059837388808 9.494812712298945 17.592814760756575 0 0 0
160 1 2 -1.1794 7.591799746689849 7.223394549514278 21.270032003416688 0 0 0
5 1 1 0.5897 3.916047563429249 6.778043247990158 21.138554349894648 0 0 0
363 1 1 0.5897 5.17785470554934 10.806875247113696 21.91355908772951 0 0 0
462 1 1 0.5897 8.949428870184324 6.330277460105923 20.448449189727796 0 0 0
279 1 1 0.5897 4.337493230517789 6.10247763836764 17.197713408308182 0 0 0
142 1 2 -1.1794 5.348359091510779 5.953567673997868 20.42288944145109 0 0 0
681 1 1 0.5897 5.270449761102784 11.806303061197886 17.05460116174587 0 0 0
144 1 1 0.5897 5.304726002953804 5.996983449485147 19.467650196884968 0 0 0
445 1 2 -1.1794 0.8873692083168804 10.862475046922924 16.75006826648297 0 0 0
446 1 1 0.5897 0.8088127560965429 11.756722425322486 17.082410143527 0 0 0
362 1 1 0.5897 5.2029423876444305 11.702353202734345 20.693118080082158 0 0 0
679 1 2 -1.1794 5.506214089445623 10.9545729897962 16.68681968306472 0 0 0
520 1 2 -1.1794 7.3629994404071795 6.970523202485526 16.63292613122691 0 0 0
200 1 1 0.5897 5.2326912595452715 13.416342455224132 4.899954877513615 0 0 0
173 1 1 0.5897 4.669104017429965 13.91247503295206 2.6618992047288117 0 0 0
172 1 2 -1.1794 5.325649169438298 13.39654902368171 3.129904700926484 0 0 0
374 1 1 0.5897 0.7173083596357835 13.646547549962953 3.894024553276948 0 0 0
558 1 1 0.5897 3.00138910668321 14.869202356090709 1.10485151159491 0 0 0
556 1 2 -1.1794 3.093600760964329 14.868829761583463 2.0576308287567873 0 0 0
557 1 1 0.5897 2.3109956294032497 14.417723336184894 2.3743091164487424 0 0 0
478 1 2 -1.1794 7.470586174889386 14.966477353519752 2.0449350366023 0 0 0
174 1 1 0.5897 5.359894152852744 12.565335336948245 2.6564182367190603 0 0 0
293 1 1 0.5897 3.0815830388584593 16.465633668597192 2.7537877679100116 0 0 0
479 1 1 0.5897 8.262799308798764 14.483616433045357 2.2805123167718486 0 0 0
449 1 1 0.5897 7.8475758237023845 16.63494086398957 2.9343805287426505 0 0 0
480 1 1 0.5897 6.751870503106967 14.399150441319081 2.3239474829890914 0 0 0
373 1 2 -1.1794 0.7333104511334562 13.519083513453356 2.9454715906048556 0 0 0
292 1 2 -1.1794 3.1187978521021877 17.356218288345744 3.1027276133224997 0 0 0
317 1 1 0.5897 7.62173442100632 14.775615707323821 0.3652350722660063 0 0 0
294 1 1 0.5897 2.941933839347015 17.255103292007334 4.038009748647654 0 0 0
308 1 1 0.5897 7.378231427787885 17.422504608356547 5.063280948293088 0 0 0
448 1 2 -1.1794 7.682357497579259 17.478362685136617 3.355840547897332 0 0 0
384 1 1 0.5897 2.7390041045096716 16.676113055308612 9.974397526424358 0 0 0
199 1 2 -1.1794 5.1605790438169725 13.278908501962201 5.844507375670851 0 0 0
454 1 2 -1.1794 5.332062842783581 13.607227754703278 10.292282631511313 0 0 0
655 1 2 -1.1794 0.7715455263200488 13.46340457504816 5.666366291108196 0 0 0
811 1 2 -1.1794 3.0463687077856094 14.958826404435268 9.298120896139654 0 0 0
456 1 1 0.5897 5.227221103892291 12.678548420655497 10.085298995432396 0 0 0
813 1 1 0.5897 2.2913442627004232 14.454477428630494 9.601181710072142 0 0 0
17 1 1 0.5897 3.0987726432227403 14.664784655680114 7.523783752407924 0 0 0
766 1 2 -1.1794 0.8102811012522079 13.605904441967196 10.318742167803954 0 0 0
656 1 1 0.5897 1.5941066203005556 13.85214605419314 5.96389726304144 0 0 0
377 1 1 0.5897 6.975417370228885 14.151630707919773 9.666884433384412 0 0 0
184 1 2 -1.1794 7.409771058017797 17.14666187164888 10.374137824844807 0 0 0
519 1 1 0.5897 8.252580275857504 14.379654892820685 6.353751140269136 0 0 0
812 1 1 0.5897 3.802173142664913 14.511723514963599 9.679056387677583 0 0 0
18 1 1 0.5897 3.844998388034985 14.249793463694882 6.273628675814513 0 0 0
376 1 2 -1.1794 7.689612660367802 14.690056780604035 9.325875627784129 0 0 0
16 1 2 -1.1794 3.0386773942355374 14.673063889134779 6.5684894006716075 0 0 0
517 1 2 -1.1794 7.4245841409351 14.715718857653346 6.696897766614677 0 0 0
186 1 1 0.5897 7.530807105312031 16.286185727575223 9.972603854866591 0 0 0
378 1 1 0.5897 7.572955088812061 14.669851674042311 8.376011789713088 0 0 0
518 1 1 0.5897 7.368654117897853 15.608756383403936 6.356828282019463 0 0 0
14 1 1 0.5897 0.7176499691150605 11.935132671457218 9.765010155294604 0 0 0
201 1 1 0.5897 5.919766065445681 13.731843929648276 6.211582243639233 0 0 0
307 1 2 -1.1794 7.338616932759942 17.399012369692898 6.01938559275011 0 0 0
382 1 2 -1.1794 2.6249367644835435 17.570865569303884 10.29484090977106 0 0 0
552 1 1 0.5897 0.6789260048392357 11.819658169729898 6.168516200181106 0 0 0
238 1 2 -1.1794 2.53841932670149 17.29941325828061 5.863826851747753 0 0 0
239 1 1 0.5897 2.708236362603882 16.392995856095197 6.120438477993875 0 0 0
296 1 1 0.5897 7.471424212845447 14.821709367213925 14.993568053022672 0 0 0
232 1 2 -1.1794 3.023653425565373 15.05844530213831 14.026681888036661 0 0 0
234 1 1 0.5897 2.9631953964571185 14.986081150133735 14.979238621633849 0 0 0
606 1 1 0.5897 3.002916313354904 16.792628118585235 13.499435238173877 0 0 0
427 1 2 -1.1794 5.187322983902495 13.618281438463994 13.070430279205226 0 0 0
233 1 1 0.5897 3.770813235445013 14.508406955961048 13.791159383730983 0 0 0
639 1 1 0.5897 1.6160720955864565 14.190093268126063 13.415307090649799 0 0 0
429 1 1 0.5897 6.000544898540286 14.073988263553696 13.287817570134138 0 0 0
428 1 1 0.5897 5.32402349051067 12.722720157151588 13.379586799329987 0 0 0
638 1 1 0.5897 0.8068897103224932 12.912221200299014 13.349866466583983 0 0 0
637 1 2 -1.1794 0.7835625348064603 13.83650784761669 13.10199447405928 0 0 0
295 1 2 -1.1794 7.465928783370885 14.87643408538867 14.037932620687886 0 0 0
270 1 1 0.5897 7.422702898740995 16.58501709032022 13.466221665913553 0 0 0
297 1 1 0.5897 8.317342614361523 14.52855633843935 13.772727715301459 0 0 0
455 1 1 0.5897 5.30159399480084 13.644963297216501 11.248266793180099 0 0 0
269 1 1 0.5897 7.44202701653173 17.347538705827738 12.158490401338286 0 0 0
268 1 2 -1.1794 7.336189146366346 17.466170981629183 13.102409436116568 0 0 0
605 1 1 0.5897 3.0154704622025807 17.584036972773845 12.208889805571037 0 0 0
604 1 2 -1.1794 3.0571920898197695 17.685910302685265 13.159754281425611 0 0 0
767 1 1 0.5897 0.7819166757518975 13.611445474064743 11.275527487000497 0 0 0
610 1 2 -1.1794 7.453831712164725 17.454646430588483 17.617098489279165 0 0 0
664 1 2 -1.1794 3.176692031218854 14.796743663338045 21.155552766368587 0 0 0
159 1 1 0.5897 7.681681489548699 17.233012657694992 19.389445050345685 0 0 0
583 1 2 -1.1794 2.98453076725741 17.43385221120557 17.837772773582493 0 0 0
824 1 1 0.5897 3.6226985637489015 14.460501796788586 17.03395605619589 0 0 0
452 1 1 0.5897 0.6817422915455384 12.773956185790974 20.734280121073432 0 0 0
125 1 1 0.5897 5.28723927703945 13.402464009564685 18.56560685088663 0 0 0
124 1 2 -1.1794 5.108964090670927 13.563180613423093 17.638969922403533 0 0 0
684 1 1 0.5897 4.743620935055324 13.875204167904654 20.70088149011714 0 0 0
50 1 1 0.5897 7.358182316572605 15.756650539797267 17.12483682759752 0 0 0
666 1 1 0.5897 3.2478769215934142 15.694868393811728 20.832146090602812 0 0 0
316 1 2 -1.1794 7.649153724336658 14.608027869105044 21.301433627901176 0 0 0
52 1 2 -1.1794 0.8119551449570143 13.471887152408494 17.835725600625032 0 0 0
318 1 1 0.5897 7.669268671519196 15.47831148458342 20.90334002120761 0 0 0
665 1 1 0.5897 2.3655185480140304 14.466246559424471 20.769520779574613 0 0 0
584 1 1 0.5897 2.863372875906773 16.547886432449246 17.496211982147294 0 0 0
683 1 1 0.5897 6.253276360782576 13.83760681475868 20.593849732190215 0 0 0
126 1 1 0.5897 5.876218704170467 14.042780723330454 17.326625769590173 0 0 0
682 1 2 -1.1794 5.463807565523008 13.364000785434646 20.331748360709078 0 0 0
825 1 1 0.5897 2.110856570760312 14.381600142600593 17.027990633792882 0 0 0
53 1 1 0.5897 0.886789341890776 13.53642409103405 18.78782543678993 0 0 0
451 1 2 -1.1794 0.7152380721170191 13.689547773629007 20.45705211575695 0 0 0
51 1 1 0.5897 8.13513672600014 14.457371315404068 17.110352781737184 0 0 0
49 1 2 -1.1794 7.3496740897847 14.873648502373769 16.75535991743496 0 0 0
157 1 2 -1.1794 7.752664136910262 17.160311220895046 20.341250692351785 0 0 0
716 1 1 0.5897 3.0404012027670495 17.441819881229158 19.6867828252726 0 0 0
823 1 2 -1.1794 2.84141026432533 14.929119628944164 16.740289531261553 0 0 0
715 1 2 -1.1794 3.062749468492029 17.57553644477254 20.6343618158636 0 0 0
158 1 1 0.5897 8.54309063937678 17.653317100924525 20.561312878066985 0 0 0
267 1 1 0.5897 5.963945230615168 21.68253664766845 2.5345687434785193 0 0 0
696 1 1 0.5897 1.5987797672538104 21.54369690898995 2.594570730160566 0 0 0
266 1 1 0.5897 4.450506182291577 21.645897615990748 2.525502448428206 0 0 0
265 1 2 -1.1794 5.219545330322173 21.109076506067936 2.716988437961458 0 0 0
344 1 1 0.5897 1.6323808817060683 18.08855194034868 2.541620382856202 0 0 0
228 1 1 0.5897 5.186656084535595 19.332033591009008 2.1968442326600033 0 0 0
345 1 1 0.5897 0.9017485855055635 18.695544300029475 1.3627651569979857 0 0 0
817 1 2 -1.1794 7.382487934708468 22.77913289827635 2.325758111424222 0 0 0
249 1 1 0.5897 4.993291064992287 21.163909023931858 4.614688483334374 0 0 0
226 1 2 -1.1794 5.386202638693407 18.424738919448927 1.9660315786763674 0 0 0
187 1 2 -1.1794 3.0395205100467586 22.49394826222015 2.1655575326200065 0 0 0
695 1 1 0.5897 0.772222903591091 20.277743083569852 2.673271631624622 0 0 0
694 1 2 -1.1794 0.7846519520984299 21.192426965658377 2.955219427702157 0 0 0
818 1 1 0.5897 8.202739653655126 22.38455431291429 2.621994559078915 0 0 0
343 1 2 -1.1794 0.8221660381616412 18.5393771617685 2.303795752787583 0 0 0
189 1 1 0.5897 3.0049483372541532 22.622733786908412 1.2176775594472207 0 0 0
413 1 1 0.5897 0.6993708538146184 21.167927583059686 4.755766279155798 0 0 0
227 1 1 0.5897 4.644618082604176 17.92250663414712 2.303783648842365 0 0 0
188 1 1 0.5897 3.088842140143435 23.379188593394268 2.5263840087312674 0 0 0
450 1 1 0.5897 6.888566364780538 17.80638768463691 2.933294557534343 0 0 0
498 1 1 0.5897 7.523794596186981 23.120153417542802 0.3912844514430298 0 0 0
321 1 1 0.5897 8.894651179574842 18.42834010658874 2.4827667483826112 0 0 0
247 1 2 -1.1794 4.992423444407606 21.171740497446336 5.571868703466152 0 0 0
602 1 1 0.5897 5.464318996617936 18.756356537227425 0.19015400611973376 0 0 0
555 1 1 0.5897 4.938536799162183 20.375524125922517 10.121161032482545 0 0 0
383 1 1 0.5897 3.3893780440683448 18.04319940952624 9.965015919918535 0 0 0
87 1 1 0.5897 7.833512717892592 22.279097294362657 9.811271405948668 0 0 0
37 1 2 -1.1794 2.6731248462388013 22.65087203368816 9.242370670384148 0 0 0
86 1 1 0.5897 6.943626372216021 22.566447015219104 8.620691928833136 0 0 0
403 1 2 -1.1794 0.3967849936136815 18.775751344124373 9.162148410307799 0 0 0
32 1 1 0.5897 8.018227653006834 22.23190017211897 6.435049538979328 0 0 0
404 1 1 0.5897 1.1415878656393486 18.262193601275584 9.474869441087494 0 0 0
39 1 1 0.5897 3.390204801687896 22.156936704964558 9.639973817254834 0 0 0
553 1 2 -1.1794 4.7097398302875515 21.276392348394197 10.350037071056285 0 0 0
701 1 1 0.5897 2.9600281100462875 22.509716667707316 7.4601509948308635 0 0 0
342 1 1 0.5897 0.2277957811820207 18.684635323855034 7.391751263641212 0 0 0
387 1 1 0.5897 4.991067697845864 19.513800482195165 6.368274276941134 0 0 0
102 1 1 0.5897 5.034819463594261 18.603764622353786 8.543726949074541 0 0 0
700 1 2 -1.1794 2.970999617856122 22.577146007128434 6.505379909237562 0 0 0
385 1 2 -1.1794 4.94353993715254 18.66746543503009 6.812945333234311 0 0 0
702 1 1 0.5897 2.267749153925277 21.99597979546442 6.215652016974241 0 0 0
38 1 1 0.5897 1.8895994955782838 22.137959664748628 9.440541015244005 0 0 0
101 1 1 0.5897 5.872398801701065 18.206107171611343 9.740517072512063 0 0 0
341 1 1 0.5897 0.8380699833826183 18.07169412834274 6.149233197180197 0 0 0
33 1 1 0.5897 6.512030532415049 22.191343019943403 6.287867238271329 0 0 0
248 1 1 0.5897 4.377795865278424 21.86734941877451 5.805616403237533 0 0 0
85 1 2 -1.1794 6.968784167144241 22.61570576872171 9.57631178954019 0 0 0
554 1 1 0.5897 5.4669570451516885 21.793523727564917 10.075339505975956 0 0 0
405 1 1 0.5897 0.5806058224254614 19.668225045749708 9.45537478669305 0 0 0
412 1 2 -1.1794 0.7201102778395011 21.118999055256694 5.711502713685702 0 0 0
31 1 2 -1.1794 7.21165958301691 22.591996308906154 6.803878359553449 0 0 0
100 1 2 -1.1794 5.088441925109268 18.697348620276138 9.494847119825119 0 0 0
386 1 1 0.5897 5.703372621917465 18.183416629802842 6.48951336138653 0 0 0
185 1 1 0.5897 8.034396755316315 17.71300326083628 9.920938702504632 0 0 0
94 1 2 -1.1794 0.518288404840557 21.292091973304608 10.035718179876572 0 0 0
240 1 1 0.5897 3.267962640964884 17.794910268866424 6.2359907691826395 0 0 0
414 1 1 0.5897 0.36656602172951236 20.253095217334717 5.915210147462905 0 0 0
309 1 1 0.5897 7.959787688429284 18.070285328563656 6.301887352709944 0 0 0
96 1 1 0.5897 0.6499547510962775 21.307018093224684 10.98371484014637 0 0 0
380 1 1 0.5897 0.6393457789603776 20.532698335251006 13.19481224917249 0 0 0
88 1 2 -1.1794 5.136856158875299 21.568479316984757 13.094179917837083 0 0 0
381 1 1 0.5897 1.2979732606218586 21.889432611162057 13.327077032046326 0 0 0
90 1 1 0.5897 5.349217831411176 20.668852792176743 13.342920051798538 0 0 0
763 1 2 -1.1794 5.279279798186121 19.010180176778334 14.00421724881848 0 0 0
738 1 1 0.5897 3.609270019864277 22.397232521928977 13.639516294864793 0 0 0
89 1 1 0.5897 4.88447553564242 21.509472677114445 12.172725172338188 0 0 0
764 1 1 0.5897 4.500444206659848 18.57238448263378 13.660699178826544 0 0 0
474 1 1 0.5897 5.27092264443886 18.762512863866625 15.947354663532819 0 0 0
765 1 1 0.5897 6.0110836226272575 18.4779621508603 13.692023951722888 0 0 0
350 1 1 0.5897 3.0630898861334286 22.542101918484292 15.842691167155246 0 0 0
736 1 2 -1.1794 2.865850573706563 22.824578194182614 14.064905680995576 0 0 0
787 1 2 -1.1794 7.433484173145339 22.71485317214951 13.832606287274917 0 0 0
503 1 1 0.5897 1.5269244484755073 18.50728572693889 13.862400032807647 0 0 0
504 1 1 0.5897 0.7852485768298224 18.950345152779363 15.105609622692818 0 0 0