LAMMPS data file via write_data, version 30 Jul 2021, timestep = 4000000

972 atoms
2 atom types
648 bonds
1 bond types
324 angles
1 angle types

-0.08145851998758857 20.081459519985067 xlo xhi
-0.07962877216396258 20.07962977217065 ylo yhi
-0.25555241931690986 20.955550419311155 zlo zhi

Masses

1 1.008
2 15.999

Pair Coeffs # lj/cut/tip4p/long/omp

1 0 0
2 0.21084 3.1668

Bond Coeffs # harmonic/omp

1 450 0.9572

Angle Coeffs # harmonic/omp

1 55 104.52

Atoms # full

132 44 1 0.5897 0.6957866736805053 7.539567587404715 4.8537309676781435 0 0 0
10 4 2 -1.1794 1.0137952043429461 3.8693600617857387 3.8322662674974897 0 0 0
31 11 2 -1.1794 1.1837590865661747 1.8936734310373924 1.6998727106479934 0 0 0
33 11 1 0.5897 1.745312198412466 2.1243569979904535 0.9598605635768982 0 0 0
5 2 1 0.5897 3.8449288875512924 0.22542753940502125 2.784113762271065 0 0 0
12 4 1 0.5897 1.8667372352683969 3.6345989281010413 4.197727204192605 0 0 0
11 4 1 0.5897 0.8312195679843437 3.183949514168599 3.1895435086432937 0 0 0
18 6 1 0.5897 4.091354736521865 2.740827308339589 3.2949114764733514 0 0 0
140 47 1 0.5897 0.7675406943180703 9.552247347940204 3.01462085436369 0 0 0
16 6 2 -1.1794 3.8908032276706663 3.5890768258263255 3.6904418656546496 0 0 0
126 42 1 0.5897 3.7768110907827808 9.78364149987839 3.0258894173403394 0 0 0
674 225 1 0.5897 2.105793256766328 5.122301317122702 0.08740765282165264 0 0 1
112 38 2 -1.1794 3.7738597599135106 7.794449234108581 2.888674752802748 0 0 0
23 8 1 0.5897 2.2233949792106205 0.6606275334077707 4.45061053411087 0 0 0
20 7 1 0.5897 0.9109281300192443 5.205918276666728 2.3563479382779744 0 0 0
4 2 2 -1.1794 3.7527155336308136 0.8930951706901639 3.463755152033137 0 0 0
113 38 1 0.5897 4.532850765309981 7.682485281340946 3.4610301648627644 0 0 0
15 5 1 0.5897 4.2559560982099764 6.31172700860423 1.959158480840252 0 0 0
141 47 1 0.5897 0.7445253945424477 8.143249508836075 2.4613529263384457 0 0 0
14 5 1 0.5897 4.160985208314329 5.405298164111771 0.750340387027796 0 0 0
19 7 2 -1.1794 0.8635507038369828 5.848469884320238 1.648458764673292 0 0 0
17 6 1 0.5897 4.191034137973295 4.230951273186962 3.0469451758407105 0 0 0
114 38 1 0.5897 3.023103472588113 7.791925182911986 3.48243258873804 0 0 0
139 47 2 -1.1794 0.6028365986262505 9.056609771010018 2.2124814428431043 0 0 0
110 37 1 0.5897 1.8444643051811083 9.233845341119041 0.8045005010896282 0 0 0
236 79 1 0.5897 0.7607092405241308 0.041339124083041495 1.7680391168874277 0 1 0
109 37 2 -1.1794 2.4901353519953098 9.143887891565559 0.10369635034656177 0 0 0
13 5 2 -1.1794 4.5794487453138135 5.482199323213955 1.6077615642069936 0 0 0
32 11 1 0.5897 0.30036376769009954 1.8690157103734468 1.3322093838599243 0 0 0
6 2 1 0.5897 4.430427759546162 0.6783568452165487 4.104634451606737 0 0 0
111 37 1 0.5897 3.31953300673485 8.998291351599539 0.558768923733851 0 0 0
130 44 2 -1.1794 1.6365883941231423 7.714278214365981 4.830260733036516 0 0 0
21 7 1 0.5897 -0.06723933816616778 5.897438168861663 1.430702242550326 0 0 0
325 109 2 -1.1794 2.6592435300360697 2.823533155103341 6.855290673196119 0 0 0
326 109 1 0.5897 2.4607577861460426 2.1461963033293627 6.208716288347986 0 0 0
327 109 1 0.5897 3.565137266741161 2.6518482168429376 7.112298831075973 0 0 0
437 146 1 0.5897 3.9690173249733043 7.176673137082623 9.91791702795022 0 0 0
356 119 1 0.5897 1.5497025294625413 2.178883868797083 8.57880975051431 0 0 0
330 110 1 0.5897 3.89896978289835 0.544519125609551 9.76953598408464 0 0 0
355 119 2 -1.1794 0.8331579422053427 1.9608965765103652 9.17483228284867 0 0 0
26 9 1 0.5897 1.953068042650862 5.511887069391982 7.176325010662416 0 0 0
27 9 1 0.5897 2.735383780811904 4.466695643961006 6.409877116646751 0 0 0
433 145 2 -1.1794 2.302818053608849 9.168879517309996 7.017986515956508 0 0 0
337 113 2 -1.1794 4.4811889220800385 5.587638530557914 8.658529607296746 0 0 0
339 113 1 0.5897 3.9854598017249465 5.552150382969412 7.840505695420841 0 0 0
464 155 1 0.5897 1.4404046909052273 8.757560544332545 8.623656782718966 0 0 0
468 156 1 0.5897 4.222460661664662 9.145238903275754 7.100776944191728 0 0 0
345 115 1 0.5897 0.6794374803550612 6.7789125429261 8.727396503914576 0 0 0
463 155 2 -1.1794 0.699360775465126 8.548694991976014 9.192347135685452 0 0 0
131 44 1 0.5897 2.039089927337909 6.9032012560578435 5.1407317561898855 0 0 0
342 114 1 0.5897 4.109180588086792 4.720038341968825 10.25494446803126 0 0 0
25 9 2 -1.1794 2.638661012607139 5.413095489341742 6.515727543199034 0 0 0
344 115 1 0.5897 0.9745497835058186 5.367681650541808 9.189164660790016 0 0 0
435 145 1 0.5897 2.1352549791034794 8.615811698390711 6.254928686533945 0 0 0
343 115 2 -1.1794 0.8172492629203009 5.889289793108483 8.402143530748795 0 0 0
357 119 1 0.5897 0.03945936662690776 2.171814653350412 8.683156728085406 0 0 0
561 187 1 0.5897 0.22467044425582278 -0.03020992107852323 9.400273001510389 0 1 0
465 155 1 0.5897 -0.07140283050443637 8.805417203051404 8.686186752261992 0 0 0
24 8 1 0.5897 1.6094114442181742 0.12209494545431285 5.725307094206533 0 0 0
22 8 2 -1.1794 1.4873589880243419 0.788424039393269 5.04903666753654 0 0 0
443 148 1 0.5897 1.2898928433778356 9.939184845052178 10.218247087281528 0 0 0
335 112 1 0.5897 0.8463994419484988 3.4066617326213224 10.344046603831151 0 0 0
328 110 2 -1.1794 4.0094738875620095 1.360468933753613 10.257649358400364 0 0 0
649 217 2 -1.1794 2.5513011079176486 2.5870592186894994 13.750388613989745 0 0 0
650 217 1 0.5897 2.3870554645980797 1.8948524797665018 13.109994463581106 0 0 0
651 217 1 0.5897 2.2054134405133956 2.2401764175180072 14.572722253497545 0 0 0
351 117 1 0.5897 3.2490000535435475 5.4090039959863985 14.731050592638656 0 0 0
334 112 2 -1.1794 0.883283274869825 4.27764300186347 10.739380076426487 0 0 0
533 178 1 0.5897 0.1376429363907528 7.511565865123881 11.844083759953332 1 0 0
346 116 2 -1.1794 1.3058320238509098 0.8396041409418081 11.854756099971208 0 0 0
350 117 1 0.5897 2.2857441008515322 4.506472258324716 13.989865252216017 0 0 0
336 112 1 0.5897 1.8007433330979818 4.389589795234875 10.98822016824532 0 0 0
680 227 1 0.5897 -0.013100982109795989 2.2758043298174355 15.461367718315698 0 0 0
348 116 1 0.5897 1.4308675992077784 1.0675328317639325 10.933565166441937 0 0 0
349 117 2 -1.1794 2.42562506557548 5.418893189394606 14.243098166730151 0 0 0
792 264 1 0.5897 4.814541987437368 9.481839534719876 14.368641602432916 0 0 0
456 152 1 0.5897 2.1868576020645465 6.689395791209601 12.86363954817815 0 0 0
759 253 1 0.5897 2.8275157147617294 8.536621226263772 13.447240626791638 0 0 0
347 116 1 0.5897 0.36921890285641296 0.964112308155987 12.007767959332572 0 0 0
454 152 2 -1.1794 1.9101567808514073 7.408203432853331 12.295319721868747 0 0 0
455 152 1 0.5897 2.638087859733548 7.52540255896518 11.684937071812556 0 0 0
757 253 2 -1.1794 3.0792479042537337 9.172618891915011 14.11683058817628 0 0 0
668 223 1 0.5897 0.7837669657428923 5.672087310360037 15.251625766569033 0 0 0
683 228 1 0.5897 4.436809516659138 2.405731421551292 13.811936622252572 0 0 0
341 114 1 0.5897 3.7382042966337337 3.324711468229011 10.710319332607549 0 0 0
329 110 1 0.5897 4.682033496533968 1.1612950930380188 10.908939126261474 0 0 0
758 253 1 0.5897 2.6532120276500755 9.98628734771095 13.847258373278803 0 0 0
436 146 2 -1.1794 4.1207653586921085 7.60180088816411 10.761989937848726 0 0 0
340 114 2 -1.1794 3.6415695683580496 4.247947240082375 10.943905115338175 0 0 0
405 135 1 0.5897 0.05287249422235618 4.638271193953908 12.329936576547617 1 0 0
438 146 1 0.5897 4.236833004368968 8.527346597538209 10.547136960876141 0 0 0
789 263 1 0.5897 1.8080971236681838 9.002714533538086 15.496580620973038 0 0 0
665 222 1 0.5897 3.0148226364266155 3.831614074320799 17.942358028537004 0 0 0
653 218 1 0.5897 3.4552917162466423 0.722334331950907 17.409014645330778 0 0 0
664 222 2 -1.1794 3.9388935156632243 3.7869577652417057 17.69684567704716 0 0 0
662 221 1 0.5897 4.550415825259907 5.065782719754966 16.5537536402818 0 0 0
671 224 1 0.5897 2.2834576276898635 1.022180436682353 19.287702471322262 0 0 0
670 224 2 -1.1794 2.121654806216152 0.4859410312114356 18.51149851668287 0 0 0
666 222 1 0.5897 4.117397103768623 2.8511988261017995 17.60325793571038 0 0 0
652 218 2 -1.1794 4.1282057411288635 1.1561537015689083 16.88442579139168 0 0 0
672 224 1 0.5897 1.275311777580544 0.7888657937339294 18.182714105444255 0 0 0
659 220 1 0.5897 0.6315492736739364 4.19435318828987 18.511173278953905 0 0 0
787 263 2 -1.1794 1.164195253424897 8.812624129909526 16.178792676805813 0 0 0
658 220 2 -1.1794 1.2273125429606333 4.0111071288363656 17.78475866886836 0 0 0
673 225 2 -1.1794 2.692178658185703 5.133926204675571 20.542073398973837 0 0 0
669 223 1 0.5897 0.6800769892451297 6.906822576119194 16.12143919572388 0 0 0
675 225 1 0.5897 2.3295756246532067 5.808320078247296 19.96768006966844 0 0 0
761 254 1 0.5897 3.855508029865627 8.964338690683567 17.2001586543791 0 0 0
681 227 1 0.5897 0.8673895687094333 2.5817129846829188 16.65425315494385 0 0 0
654 218 1 0.5897 4.29123714622809 0.5544140104933413 16.158089777431595 0 0 0
780 260 1 0.5897 2.6329475686041475 7.625645947251176 18.336680880471583 0 0 0
778 260 2 -1.1794 1.974300411475196 7.507680633713071 19.021125347935737 0 0 0
779 260 1 0.5897 2.156866768957998 8.203691454225481 19.652377953243672 0 0 0
660 220 1 0.5897 1.1666029143235368 4.784279792626152 17.223733373852482 0 0 0
760 254 2 -1.1794 4.0970892962525545 8.053690247055702 17.369277014072175 0 0 0
663 221 1 0.5897 4.538409438249372 6.57818584123328 16.486700680161523 0 0 0
788 263 1 0.5897 1.0907628902633455 9.628702996397655 16.673610401403145 0 0 0
679 227 2 -1.1794 0.7136191155379131 1.9243232134634733 15.975704115988151 0 0 0
858 286 1 0.5897 0.05414260938382576 7.360699080569328 19.232170894317882 1 0 0
2 1 1 0.5897 2.4822763601371465 3.1755599907477987 20.42051466710866 0 0 -1
1 1 2 -1.1794 2.7665498970423354 2.310544553899404 20.715769958393793 0 0 -1
661 221 2 -1.1794 4.729575489186209 5.798830602543954 15.964865414303098 0 0 0
667 223 2 -1.1794 0.36169845101699727 6.007572978459127 16.042511348902135 0 0 0
884 295 1 0.5897 0.7725805278841267 0.26217484026440346 15.740517317405725 0 1 0
762 254 1 0.5897 4.788290813985601 8.107374799473881 18.029242208503067 0 0 0
3 1 1 0.5897 3.722581371343549 2.3548929836549415 20.703322987392152 0 0 -1
120 40 1 0.5897 1.0323812694592882 11.941471242415865 3.1294744708890705 0 0 0
129 43 1 0.5897 0.6593048546957065 13.636683654732266 1.9259956647878531 0 0 0
890 297 1 0.5897 1.5702251434233956 19.142035314611306 -0.05827371211579463 0 0 1
222 74 1 0.5897 4.3432422391277115 13.944465016388378 2.511055354980817 0 0 0
127 43 2 -1.1794 0.5492458231700645 12.725977079254344 1.652585856029209 0 0 0
238 80 2 -1.1794 2.073625662010557 14.28277899013027 4.804948852281607 0 0 0
233 78 1 0.5897 4.090203061181787 17.904182605629764 2.646697814448471 0 0 0
317 106 1 0.5897 0.19964945006592133 14.416322671522474 4.494641651191477 1 0 0
118 40 2 -1.1794 1.256117308553199 11.3907058253166 3.8796938860267645 0 0 0
240 80 1 0.5897 2.891495666989971 14.352985880784274 4.312670745536077 0 0 0
122 41 1 0.5897 4.59028102430044 11.877468868054443 1.7727339349379165 0 0 0
119 40 1 0.5897 2.208612453352384 11.305350064780242 3.83915761399975 0 0 0
247 83 2 -1.1794 0.8170464578619892 15.462313221463834 2.3793538613560545 0 0 0
235 79 2 -1.1794 0.4382787825673634 19.38976402008553 1.374550026116864 0 0 0
228 76 1 0.5897 0.8394761170497709 18.16779881226526 4.517331831701637 0 0 0
123 41 1 0.5897 4.179452141531493 12.483214132408497 0.44756074362878395 0 0 0
230 77 1 0.5897 3.5127751156633624 19.00837025349749 0.646902248692551 0 0 0
249 83 1 0.5897 1.4391716954227918 15.767175766803632 1.7188878738916042 0 0 0
221 74 1 0.5897 4.22533615323514 15.36759960370811 3.0138169768976892 0 0 0
234 78 1 0.5897 2.835745948320151 17.41591959310899 3.3393199577309542 0 0 0
124 42 2 -1.1794 3.8914260381049672 10.689167377452812 3.314248450390162 0 0 0
248 83 1 0.5897 0.7938196541961006 16.164556009479284 3.0293919241223852 0 0 0
226 76 2 -1.1794 1.1519314487354178 17.912538378518278 3.649358832941579 0 0 0
227 76 1 0.5897 0.7555540247860988 18.549349930380238 3.054760295280005 0 0 0
232 78 2 -1.1794 3.7542371831776467 17.191536314787847 3.1902928614688832 0 0 0
783 261 1 0.5897 1.9280820059674069 12.156474175099284 0.245052183723259 0 0 1
220 74 2 -1.1794 4.496986623315636 14.48993314540628 3.282453134785241 0 0 0
229 77 2 -1.1794 4.050228309901797 19.243811629349437 1.4031420834675306 0 0 0
125 42 1 0.5897 4.533929742901874 10.636215224176702 4.021761910005557 0 0 0
121 41 2 -1.1794 4.7902875781476695 12.598219830508548 1.1754538267082388 0 0 0
224 75 1 0.5897 4.824796292094602 17.505692834018532 4.633416334714552 0 0 0
219 73 1 0.5897 3.554964887443481 16.06205568228409 0.08732401179171145 0 0 0
217 73 2 -1.1794 2.5985313069472036 16.029175732999633 0.06983037411723447 0 0 0
231 77 1 0.5897 4.917278544890846 19.417286270376145 1.0366803490556185 0 0 0
218 73 1 0.5897 2.3338152934841863 16.90038952971966 -0.22542115992554912 0 0 0
133 45 2 -1.1794 2.5461804357052302 12.160418698465296 6.451570149458261 0 0 0
134 45 1 0.5897 1.9187951989997258 12.388552169705148 7.137530520451836 0 0 0
135 45 1 0.5897 3.4030389573499047 12.317632510726963 6.84811347884001 0 0 0
573 191 1 0.5897 0.8279192652219317 14.51486234078804 9.228516044149751 0 0 0
445 149 2 -1.1794 4.613919372060137 12.308214846713117 8.37514614602298 0 0 0
559 187 2 -1.1794 0.03781742282189035 19.19969017349927 9.267506700565683 0 0 0
446 149 1 0.5897 4.436462044529254 13.141077325983257 8.812263409881853 0 0 0
571 191 2 -1.1794 0.9594947596221071 15.461498077394635 9.175254893764984 0 0 0
558 186 1 0.5897 3.6916058769087683 17.92871101297135 9.81167073541559 0 0 0
188 63 1 0.5897 0.14609428020644302 11.535254221042694 5.629524187921677 1 0 0
542 181 1 0.5897 2.2187222743157404 15.579028394842226 7.806275273179356 0 0 0
450 150 1 0.5897 4.320376927245593 10.999295611724508 9.632826119381992 0 0 0
453 151 1 0.5897 1.1541267170289258 12.018102987882138 9.387759910317031 0 0 0
243 81 1 0.5897 1.4911491674002963 18.79126400775813 7.767978676086608 0 0 0
451 151 2 -1.1794 0.8571528645053865 12.655498484333807 8.7383456199008 0 0 0
543 181 1 0.5897 2.2893625088766436 15.360103129957155 6.3099787629150415 0 0 0
576 192 1 0.5897 4.572874790333494 15.59887585987619 7.337092610795976 0 0 0
572 191 1 0.5897 0.7733872143530504 15.77974788608344 10.058597344619633 0 0 0
241 81 2 -1.1794 1.8274093750782308 18.61468573142016 6.889378079819885 0 0 0
242 81 1 0.5897 2.034351663215445 17.680119809421953 6.894949997761605 0 0 0
553 185 2 -1.1794 4.045232250099917 19.29504458739993 8.564315758418722 0 0 0
541 181 2 -1.1794 2.756136490708494 15.770762949758758 7.037774686063387 0 0 0
555 185 1 0.5897 3.652253266437473 18.719648805348065 7.9080354750620465 0 0 0
239 80 1 0.5897 2.1608235192437806 13.468371969642536 5.300300472646293 0 0 0
544 182 2 -1.1794 4.330089959531246 14.583332495636016 10.172816837742586 0 0 0
434 145 1 0.5897 2.1379135562366565 10.059882183346712 6.709478228852762 0 0 0
557 186 1 0.5897 3.781248067959681 16.442140770985027 10.083777675713034 0 0 0
452 151 1 0.5897 -0.0562128393257062 12.421906110567614 8.573119343292719 0 0 0
457 153 2 -1.1794 2.5783212908844058 11.829014568867079 13.324785704199622 0 0 0
458 153 1 0.5897 1.898696654124943 11.984230518675092 13.980692892240482 0 0 0
459 153 1 0.5897 3.3979316331885885 12.030968482680606 13.776054457493665 0 0 0
562 188 2 -1.1794 2.1851897939282026 14.207889081918582 11.889784752157038 0 0 0
563 188 1 0.5897 2.442533094648581 13.354699131642503 12.239177607189124 0 0 0
512 171 1 0.5897 0.21534526489918815 10.947034478214237 12.022746236231674 1 0 0
775 259 2 -1.1794 0.8023200253508503 12.811529099379491 15.482862984868696 0 0 0
556 186 2 -1.1794 3.4850731880070227 17.266022186820805 10.470760693598248 0 0 0
564 188 1 0.5897 2.50890920538699 14.8383245532743 12.533184300609337 0 0 0
879 293 1 0.5897 3.814626753405422 19.11601096431133 14.448329203200066 0 0 0
552 184 1 0.5897 1.7300565496229765 17.27769224571196 10.978108860666016 0 0 0
642 214 1 0.5897 0.05133587417241428 14.267694816765543 11.864768271696649 1 0 0
867 289 1 0.5897 2.392781943211375 15.858502946378366 14.42182575700721 0 0 0
448 150 2 -1.1794 4.174393904521981 10.440815055123002 10.396374429638424 0 0 0
449 150 1 0.5897 4.711202863060314 10.831715618398189 11.085746342982503 0 0 0
866 289 1 0.5897 3.8480209659594804 15.86058894385899 14.00465549595501 0 0 0
550 184 2 -1.1794 0.790572211545997 17.37804321644157 11.131352765408 0 0 0
865 289 2 -1.1794 2.9824330320204453 16.166250089054294 13.733542580634342 0 0 0
565 189 2 -1.1794 2.3556952018563293 19.102002384260032 13.490475241583212 0 0 0
567 189 1 0.5897 1.9939033809000488 19.44573933504676 12.673673466279958 0 0 0
566 189 1 0.5897 2.45896775785506 18.163798199659993 13.331163908874128 0 0 0
769 257 2 -1.1794 4.746154658845275 12.685988643944645 15.11619356196172 0 0 0
885 295 1 0.5897 1.1495714803430652 19.287283993449755 14.811274026615685 0 0 0
883 295 2 -1.1794 0.6109782212805369 19.4925023005733 15.575464449823084 0 0 0
545 182 1 0.5897 3.553899828051581 14.24808630892147 10.62152335460255 0 0 0
896 299 1 0.5897 0.0849288710303352 15.595696201279841 15.24724573730319 0 0 0
444 148 1 0.5897 2.4560270447123016 10.739517329279046 10.758085915033693 0 0 0
551 184 1 0.5897 0.5342951125837178 18.11483138701417 10.576669330887976 0 0 0
442 148 2 -1.1794 1.503731679620342 10.759063378820242 10.663575631015291 0 0 0
877 293 2 -1.1794 4.582527122671085 19.220671342880195 15.010073647851309 0 0 0
548 183 1 0.5897 4.939357921363722 17.71865573006516 11.599931126393887 0 0 0
771 257 1 0.5897 4.4800770343667295 13.56105096570083 15.398498116919471 0 0 0
777 259 1 0.5897 0.7734980440615736 13.755854001324344 15.636665049652029 0 0 0
768 256 1 0.5897 1.089276504884013 11.872132029789368 16.96746379805334 0 0 0
774 258 1 0.5897 4.482409727961276 11.225067227362484 16.55251699668882 0 0 0
888 296 1 0.5897 2.0630232472284775 13.18802874382462 19.894476485117885 0 0 0
965 322 1 0.5897 0.3120270921666886 14.198614376428365 19.367333918246896 1 0 0
880 294 2 -1.1794 3.9102259158663015 17.723026043916647 17.32301255248421 0 0 0
868 290 2 -1.1794 3.7664991165732347 14.792545381177707 17.010158454804458 0 0 0
773 258 1 0.5897 3.2953636336527086 10.979033667998934 17.45922506948078 0 0 0
891 297 1 0.5897 2.0627974082233833 19.42220763404643 19.749016483979783 0 0 0
766 256 2 -1.1794 1.4776743832054764 11.34117598944515 17.662754352774595 0 0 0
869 290 1 0.5897 3.027782833517609 14.435633359117075 17.503221084352067 0 0 0
870 290 1 0.5897 4.5409118098822665 14.456529598671873 17.461339290689015 0 0 0
887 296 1 0.5897 2.3247456382019007 14.660161070996335 20.131769445902087 0 0 0
886 296 2 -1.1794 2.118358625360147 14.029621137356054 19.441800485681703 0 0 0
772 258 2 -1.1794 4.22227718653995 10.76614314666822 17.35122072486004 0 0 0
875 292 1 0.5897 0.41655787167517705 17.59029203362109 18.507186951804332 0 0 0
781 261 2 -1.1794 2.5883058361775717 11.91569407439496 20.806295384296046 0 0 0
878 293 1 0.5897 4.470894791128592 18.560890379612573 15.694518673288437 0 0 0
874 292 2 -1.1794 0.9473308509004879 17.44166152276604 17.724634183161886 0 0 0
882 294 1 0.5897 3.858789532429778 16.786962001489677 17.129645553221753 0 0 0
876 292 1 0.5897 0.8252842637856637 18.23177761972731 17.19825691373155 0 0 0
897 299 1 0.5897 0.9043509494066991 16.1779198801565 16.379236411446545 0 0 0
881 294 1 0.5897 3.08273903947606 17.923572905008037 17.760296636989313 0 0 0
889 297 2 -1.1794 2.230437300144821 18.87237796321987 20.514394130922195 0 0 0
767 256 1 0.5897 0.8384292010347006 11.37290556157862 18.374478681943874 0 0 0
895 299 2 -1.1794 0.9480452313755596 15.549615962394228 15.658441811012276 0 0 0
782 261 1 0.5897 2.5586939105724147 10.959380335022233 20.777033819825164 0 0 0
56 19 1 0.5897 6.499022856930217 6.018874121969772 1.5877266818765279 0 0 0
175 59 2 -1.1794 7.913256908360457 9.139394604728253 1.4028781445132688 0 0 0
143 48 1 0.5897 6.083905748851235 9.245470922711347 0.7643017781555326 0 0 0
48 16 1 0.5897 7.307113036650932 4.177239157523204 4.271771293172317 0 0 0
53 18 1 0.5897 9.743143312172766 4.148359256245767 3.420540597570479 0 0 0
46 16 2 -1.1794 7.924524631515624 4.2572119869218525 3.544726184797024 0 0 0
47 16 1 0.5897 7.67216500634562 3.561269857800113 2.9379199105584326 0 0 0
67 23 2 -1.1794 7.437359457213747 2.02021806079167 1.7887848277571505 0 0 0
68 23 1 0.5897 8.182994996292056 2.187543496254594 1.2124176098581765 0 0 0
69 23 1 0.5897 6.670815984101893 2.2407511587427225 1.259666083296358 0 0 0
138 46 1 0.5897 6.5443826174300375 7.172228960624878 4.748819300881586 0 0 0
142 48 2 -1.1794 5.378530448811506 9.401949968918222 0.13648929955346828 0 0 0
149 50 1 0.5897 9.814847766283236 7.691408668533651 3.326889717795449 0 0 0
177 59 1 0.5897 8.71216685977279 9.195078226106626 0.8786499804667971 0 0 0
176 59 1 0.5897 7.752172330492258 8.200415303495234 1.4958375436643687 0 0 0
273 91 1 0.5897 7.159302529494664 0.24431980414238397 1.4940296283298462 0 1 0
57 19 1 0.5897 7.6866438804197905 5.939210661566111 2.5231183623302065 0 0 0
55 19 2 -1.1794 7.289563299791775 6.490936216827791 1.8492161168657368 0 0 0
166 56 2 -1.1794 8.5195008394028 7.360926449998109 4.604426777827504 0 0 0
709 237 2 -1.1794 9.186245328177511 5.681160946353813 -0.17273631116387084 0 0 1
711 237 1 0.5897 8.520475601162383 5.793592551513642 0.505722910577945 0 0 1
34 12 2 -1.1794 5.4289091122699284 2.386316908962102 0.0842193840124415 0 0 0
41 14 1 0.5897 9.63289962909454 1.0837455844524755 3.4669428309066315 0 0 0
37 13 2 -1.1794 9.203885325703409 2.939233364210725 -0.053445714409787376 0 0 0
9 3 1 0.5897 5.2745687353502655 4.210719718534541 5.043546451789138 0 0 0
36 12 1 0.5897 5.500595966960494 3.3307740209823375 -0.05405542359031301 0 0 0
501 167 1 0.5897 6.4389637047989945 9.078684287584684 8.169739095287719 0 0 0
167 56 1 0.5897 8.900571855216908 6.662778542775986 5.136973724373935 0 0 0
360 120 1 0.5897 5.364411365073335 1.434032404853753 6.956472397108022 0 0 0
467 156 1 0.5897 5.234167479647877 8.421213800102848 6.238217433088818 0 0 0
361 121 2 -1.1794 9.27012899708954 2.577944052053988 7.175911490437125 0 0 0
59 20 1 0.5897 8.735148529421128 1.3579331410233009 5.789519531167211 0 0 0
358 120 2 -1.1794 5.236092965491531 2.1946194687689315 7.523268688814747 0 0 0
391 131 2 -1.1794 7.24773471914491 1.8856842233796793 9.118384991026264 0 0 0
392 131 1 0.5897 7.904375396349452 2.061158320310222 8.44442210700411 0 0 0
393 131 1 0.5897 7.074102417105494 0.9471544535368361 9.0457015787246 0 0 0
359 120 1 0.5897 5.846164015332132 2.0592607450389764 8.248306926981073 0 0 0
500 167 1 0.5897 7.375052992602615 9.489575580676506 9.286307094895118 0 0 0
379 127 2 -1.1794 7.304967023064897 6.008859206090462 8.416454709369056 0 0 0
62 21 1 0.5897 8.821802003693108 5.754801883277217 7.120054846546732 0 0 0
362 121 1 0.5897 9.121515876444684 3.3841003673845824 6.681704166865466 0 0 0
381 127 1 0.5897 7.394303540225985 5.542506118453147 9.247566868265132 0 0 0
470 157 1 0.5897 8.41464292221871 9.255066513441264 7.136815866949263 0 0 0
61 21 2 -1.1794 9.425588308511978 5.416653166557997 6.4587703710626245 0 0 0
469 157 2 -1.1794 8.974286505547289 9.524692052123799 6.408597547091111 0 0 0
8 3 1 0.5897 6.082134180381326 3.5785885380623363 6.1571424019105025 0 0 0
380 127 1 0.5897 7.476276415585744 6.924783324561635 8.635552485521048 0 0 0
499 167 2 -1.1794 7.279422088555866 8.85960544234678 8.572005098322139 0 0 0
338 113 1 0.5897 5.39104191460976 5.69942170639187 8.383113257218954 0 0 0
377 126 1 0.5897 9.671144953606692 4.218163298249392 9.945997245997612 0 0 0
7 3 2 -1.1794 5.977219375051156 4.394138602334625 5.667114958377687 0 0 0
28 10 2 -1.1794 5.685944081693625 0.279192606088602 5.3464568599079 0 0 0
471 157 1 0.5897 9.860957205122602 9.509102887021216 6.768817324436139 0 0 0
168 56 1 0.5897 8.75879121604223 8.168085202535298 5.059927715976683 0 0 0
466 156 2 -1.1794 5.16404805314192 9.026415372896567 6.976483127493065 0 0 0
371 124 1 0.5897 7.2930057646308395 3.3343909818800133 10.17347595201539 0 0 0
58 20 2 -1.1794 8.518704605796128 0.7228122824559091 5.106870458403779 0 0 0
137 46 1 0.5897 5.563948938463147 6.352825512362625 5.560717472487835 0 0 0
136 46 2 -1.1794 5.643013101085614 7.171391367411376 5.070868446327276 0 0 0
29 10 1 0.5897 6.6148674917300445 0.45450616948070777 5.196319661505382 0 0 0
387 129 1 0.5897 8.96633213178682 6.304541157407085 13.459011969301802 0 0 0
790 264 2 -1.1794 5.753248668480217 9.50841212359276 14.183420775234739 0 0 0
491 164 1 0.5897 9.583154606551073 7.985840730551871 11.508205154223072 0 0 0
332 111 1 0.5897 5.2796888341429264 4.628093459592952 12.439230048471835 0 0 0
331 111 2 -1.1794 5.9947568227109285 4.7486116078492975 13.063973064713544 0 0 0
462 154 1 0.5897 5.653816512465688 7.460917215690228 11.89810805046915 0 0 0
686 229 1 0.5897 8.784480251311335 2.526307795685421 14.79649546150898 0 0 0
793 265 2 -1.1794 9.379010584254559 9.43446472217185 14.562058839696029 0 0 0
372 124 1 0.5897 7.473166200466879 4.002308450271093 11.520038495175088 0 0 0
353 118 1 0.5897 6.732925807066285 0.9892695866874723 11.977199128613151 0 0 0
682 228 2 -1.1794 5.327511988827655 2.385780226869374 14.161845413480773 0 0 0
383 128 1 0.5897 8.739263332250529 1.4905038044825976 12.54875822020363 0 0 0
385 129 2 -1.1794 9.054354248084655 5.673971832989819 14.173762581726512 0 0 0
386 129 1 0.5897 8.761447283267783 4.843499244561943 13.798631308470911 0 0 0
460 154 2 -1.1794 6.4044288402292535 7.426845202792197 12.49107588412344 0 0 0
382 128 2 -1.1794 8.616052758532899 0.756604232943424 11.946728083929996 0 0 0
685 229 2 -1.1794 9.123676351076858 2.8541026492698722 13.963608342556741 0 0 0
333 111 1 0.5897 6.164050405961305 5.690694737119797 13.05615137217881 0 0 0
791 264 1 0.5897 6.166343454193013 9.211661126447805 14.994276694936753 0 0 0
354 118 1 0.5897 5.706540782423958 1.070838292268057 13.08698218492645 0 0 0
794 265 1 0.5897 9.191559667038014 8.996631683232176 13.731779141451417 0 0 0
461 154 1 0.5897 6.261212514232025 8.150258282189801 13.101317165220356 0 0 0
384 128 1 0.5897 9.166175466430596 0.9696082654039406 11.192949639851843 0 0 0
492 164 1 0.5897 8.227679920004952 7.662806854087544 12.099903046014461 0 0 0
352 118 2 -1.1794 5.84851620525738 0.7087495878417457 12.212381778687739 0 0 0
490 164 2 -1.1794 9.163931000594859 7.644460349634277 12.298082271806734 0 0 0
370 124 2 -1.1794 7.546486991055711 4.163389435772841 10.579377066216175 0 0 0
684 228 1 0.5897 5.6811154569142355 3.2538409883112305 13.96769404851628 0 0 0
706 236 2 -1.1794 8.72594029013916 0.9130577847293999 19.12631130387482 0 0 0
703 235 2 -1.1794 7.513108380146049 6.095307724218289 16.39419887340297 0 0 0
677 226 1 0.5897 5.31030093407745 0.8051915527075022 18.146813487615283 0 0 0
786 262 1 0.5897 6.958714385288824 7.5671213019682595 19.29960993415764 0 0 0
676 226 2 -1.1794 5.815188742335332 0.7978447524239092 18.959970658050498 0 0 0
715 239 2 -1.1794 7.399389619513234 1.9794050231264109 16.14233439608759 0 0 0
708 236 1 0.5897 7.837343720332278 1.0072379540340455 18.783231842406227 0 0 0
657 219 1 0.5897 6.730164497006755 4.298813642420543 19.393436652885082 0 0 0
814 272 2 -1.1794 8.833339329534251 7.744262275619273 19.251053164409733 0 0 0
694 232 2 -1.1794 8.344912869219847 4.085951797866869 18.051048292104 0 0 0
695 232 1 0.5897 7.920735664365182 3.447326564056985 17.477937664458008 0 0 0
696 232 1 0.5897 8.168771938656533 4.932036751977963 17.639518760860543 0 0 0
823 275 2 -1.1794 7.329556357996005 8.810875900103833 16.38608291869989 0 0 0
655 219 2 -1.1794 5.908243145295213 4.763697009037315 19.549899199901418 0 0 0
704 235 1 0.5897 6.654984002710824 5.767629316799198 16.125043633650055 0 0 0
784 262 2 -1.1794 6.001742861696086 7.586444405101881 19.29626346979828 0 0 0
815 272 1 0.5897 8.978971192207192 6.9288819401546276 19.73083412643996 0 0 0
816 272 1 0.5897 9.36059432415669 8.393848046053 19.716104272161473 0 0 0
825 275 1 0.5897 7.193181863098121 7.8833582065596 16.579415627102865 0 0 0
785 262 1 0.5897 5.742961292823003 6.703252346736094 19.559417951181103 0 0 0
716 239 1 0.5897 7.541868493739081 1.0599281164861496 15.917554868077058 0 0 0
38 13 1 0.5897 9.002212652749359 2.337507849098314 20.44108305934522 0 0 -1
144 48 1 0.5897 5.545581708558564 8.78036979417742 20.63909640020024 0 0 -1
35 12 1 0.5897 5.666235395775903 2.0015397823182646 20.451635856913814 0 0 -1
710 237 1 0.5897 9.073916631008808 4.778913756393837 20.739071424244816 0 0 0
707 236 1 0.5897 8.722087910637729 0.06674926139135687 19.573522283051428 0 0 0
656 219 1 0.5897 5.294665002274255 4.384855618364921 18.920485546077334 0 0 0
804 268 1 0.5897 7.960349901663841 9.870192026387631 17.541847891637246 0 0 0
705 235 1 0.5897 8.100698322408219 5.8423202930882185 15.682203080025817 0 0 0
824 275 1 0.5897 8.070675034676947 8.823328347078855 15.780459395135654 0 0 0
717 239 1 0.5897 6.587286194782008 2.2132721758106917 15.692919005859263 0 0 0
263 88 1 0.5897 7.086387762595842 17.7491633451694 4.098166970705719 0 0 0
164 55 1 0.5897 6.740984576028832 12.526266919245737 1.0042675529237433 0 0 0
819 273 1 0.5897 8.766320811327258 12.231837861729728 -0.0500299030364961 0 0 1
276 92 1 0.5897 9.194348779160682 14.148109508091306 4.401311014851317 0 0 0
251 84 1 0.5897 6.007439840085011 15.631426307338815 0.36741928306314076 0 0 0
283 95 2 -1.1794 7.31565499717727 15.441404960472687 1.6599412958289257 0 0 0
254 85 1 0.5897 8.268151361962422 15.731083322344691 0.35921479898324793 0 0 0
165 55 1 0.5897 7.5668581310502905 11.897975692254876 2.1065145178340985 0 0 0
163 55 2 -1.1794 7.619867009681923 12.522832797513118 1.383358349657063 0 0 0
262 88 2 -1.1794 7.568489995857699 17.975678397829334 3.302890938436345 0 0 0