LAMMPS (30 Jul 2021)
  using 1 OpenMP thread(s) per MPI task
package omp 0
using multi-threaded neighbor list subroutines
echo both

include		in.partitions
variable        pid world 0
include		in.temp
variable        temperature equal 260.82
variable	tempDamp equal 100.0
include		in.pressure
variable        pressure equal 8125.0
variable        pressureDamp equal 1000.0 # This is 1 ps
include		in.seed
variable        seed world 745823

units		real
atom_style	full

read_restart	restart.lmp.${pid}
read_restart	restart.lmp.0
Reading restart file ...
  restart file = 30 Jul 2021, LAMMPS = 30 Jul 2021
  restoring atom style full from restart
  orthogonal box = (-0.035555365 -0.059125088 0.28178168) to (20.035556 20.059126 20.418216)
  4 by 4 by 4 MPI processor grid
  restoring pair style lj/cut/tip4p/long/omp from restart
  restoring bond style harmonic/omp from restart
  restoring angle style harmonic/omp from restart
  972 atoms
  648 bonds
  324 angles
Finding 1-2 1-3 1-4 neighbors ...
  special bond factors lj:    0        0        0       
  special bond factors coul:  0        0        0       
     2 = max # of 1-2 neighbors
     1 = max # of 1-3 neighbors
     1 = max # of 1-4 neighbors
     2 = max # of special neighbors
  special bonds CPU = 1.254 seconds
  read_restart CPU = 1.540 seconds
include 	in.setup
variable	out_freq equal 1000
variable	out_freq2 equal 10000
variable	out_freq3 equal 1000

timestep	2.0

neigh_modify    delay 7 every 1

include		in.tip4p
# This is TIP4P/Ice

# create groups ###
group ox type 2
324 atoms in group ox
group hy type 1
648 atoms in group hy

# set charges - beside manually ###
set group ox charge -1.1794
Setting atom values ...
  324 settings made for charge
set group hy charge 0.5897
Setting atom values ...
  648 settings made for charge

# ### TIP3P Potential Parameters ###
pair_style lj/cut/tip4p/long/omp 2 1 1 1 0.1577 8.5
pair_coeff 1 1*2 0.000 0.000
pair_coeff 2 2 0.21084 3.1668
bond_style  harmonic
bond_coeff  1 450 0.9572
angle_style harmonic
angle_coeff 1 55 104.52
kspace_style pppm/tip4p/omp 1.0e-5
pair_modify tail yes

thermo          ${out_freq}
thermo          1000
thermo_style    custom step temp pe etotal epair emol press lx ly lz vol pxx pyy pzz pxy pxz pyz enthalpy

restart 	${out_freq3} restart.lmp.${pid} restart2.lmp.${pid}
restart 	1000 restart.lmp.${pid} restart2.lmp.${pid}
restart 	1000 restart.lmp.0 restart2.lmp.${pid}
restart 	1000 restart.lmp.0 restart2.lmp.0


include         in.dump
dump            myDump all atom ${out_freq2} dump.water.${pid}
dump            myDump all atom 10000 dump.water.${pid}
dump            myDump all atom 10000 dump.water.0
dump            myDump2 all dcd ${out_freq2} dump.dcd
dump            myDump2 all dcd 10000 dump.dcd
dump_modify     myDump append yes
dump_modify     myDump2 append yes


variable natoms 	equal  "count(all)"                        # NUMBER ATOMS
variable H      	equal  "enthalpy/v_natoms"                 # ENTHALPY-per-atom
variable Vol      	equal  "vol/v_natoms"                 # volume-per-atom
fix AVG all 		ave/time ${out_freq} 1 ${out_freq} v_Vol v_H file vol_enthalpy.dat
fix AVG all 		ave/time 1000 1 ${out_freq} v_Vol v_H file vol_enthalpy.dat
fix AVG all 		ave/time 1000 1 1000 v_Vol v_H file vol_enthalpy.dat


timer           timeout 02:55:00 every 1000
New timer settings: style=normal  mode=nosync  timeout=02:55:00

fix 		1 all shake 1e-6 200 0 b 1 a 1
       0 = # of size 2 clusters
       0 = # of size 3 clusters
       0 = # of size 4 clusters
     324 = # of frozen angles
  find clusters CPU = 0.115 seconds
fix             2 all nph aniso ${pressure} ${pressure} ${pressureDamp}
fix             2 all nph aniso 8125 ${pressure} ${pressureDamp}
fix             2 all nph aniso 8125 8125 ${pressureDamp}
fix             2 all nph aniso 8125 8125 1000
fix             3 all temp/csvr ${temperature} ${temperature} ${tempDamp} ${seed}
fix             3 all temp/csvr 260.82 ${temperature} ${tempDamp} ${seed}
fix             3 all temp/csvr 260.82 260.82 ${tempDamp} ${seed}
fix             3 all temp/csvr 260.82 260.82 100 ${seed}
fix             3 all temp/csvr 260.82 260.82 100 745823


run             250000
PPPM initialization ...
  extracting TIP4P info from pair style
  using 12-bit tables for long-range coulomb (../kspace.cpp:340)
  G vector (1/distance) = 0.37191594
  grid = 24 24 24
  stencil order = 5
  estimated absolute RMS force accuracy = 0.0035388781
  estimated relative force accuracy = 1.0657226e-05
  using double precision FFTW3
  3d grid and FFT values/proc = 2197 216
Last active /omp style is kspace_style pppm/tip4p/omp
Neighbor list info ...
  update every 1 steps, delay 7 steps, check yes
  max neighbors/atom: 2000, page size: 100000
  master list distance cutoff = 10.8154
  ghost atom cutoff = 10.8154
  binsize = 5.4077, bins = 4 4 4
  1 neighbor lists, perpetual/occasional/extra = 1 0 0
  (1) pair lj/cut/tip4p/long/omp, perpetual
      attributes: half, newton on, omp
      pair build: half/bin/newton/omp
      stencil: half/bin/3d
      bin: standard
Per MPI rank memory allocation (min/avg/max) = 9.220 | 9.223 | 9.225 Mbytes
Step Temp PotEng TotEng E_pair E_mol Press Lx Ly Lz Volume Pxx Pyy Pzz Pxy Pxz Pyz Enthalpy 
16750000    266.34829   -4666.4777   -4152.8026   -4666.4777            0    9113.1301    20.071112    20.118251    20.136435    8131.0051    7118.3955    9079.6097    11141.385    290.93127    205.15876    88.425613   -3072.1461 
16751000    252.10781   -4690.6961    -4204.485   -4690.6961            0    7130.2433    19.980753    19.842915    20.446143    8106.4125    7980.1492    6465.7227     6944.858   -293.68329    106.49765    -108.5368   -3361.5211 
16752000    264.55672   -4704.9077   -4194.6878   -4704.9077            0    6513.3277    19.767569    19.893232    20.726669    8150.5727    6701.6713    6365.1903    6473.1216    284.39132    906.01817    -912.8718   -3420.4632 
16753000     252.7419   -4674.5128   -4187.0788   -4674.5128            0    7860.9047    19.811472     19.87972    20.523235    8083.0049    8837.8994    5928.6474    8816.1673    472.53536    651.26884    2317.1756    -3260.417 
16754000    260.91072   -4734.4282     -4231.24   -4734.4282            0    6954.3106    19.931164    19.885056     20.51301    8129.9685    6052.7211    7331.7192    7478.4915    341.48003    573.73363   -922.87895   -3406.6865 
16755000    258.38717   -4701.3623   -4203.0409   -4701.3623            0    7696.9598    19.827959    19.966784    20.627241    8166.3364    6597.3554    8800.6195    7692.9043   -180.83284   -1157.6531    371.62327   -3286.3511 
16756000    272.76665   -4719.2739   -4193.2205   -4719.2739            0      6293.59    19.962824    20.037572    20.574486    8229.9286    4956.6084      6782.79    7141.3717    337.93295   -174.32651    299.95826   -3437.8319 
16757000    268.08866   -4713.4823   -4196.4507   -4713.4823            0    8724.4188    19.898113    19.626185    20.822841    8131.8203    7989.6062    9472.5986    8711.0517   -29.758953   -859.38727   -1369.2623   -3161.7847 
16758000     274.2924   -4719.9955   -4190.9995   -4719.9955            0    7618.6547     19.77297    19.971011     20.60971      8138.49    7837.3583     7568.087    7450.5186   -57.802003    1158.6469   -501.03361   -3286.7298 
16759000    263.52905   -4669.8118   -4161.5739   -4669.8118            0    9812.9663    19.910731    19.885873    20.461397     8101.532    9169.0372    10402.751    9867.1108    881.71921   -1012.3328   -289.66944    -3002.147 
16760000    275.89481   -4711.2962   -4179.2099   -4711.2962            0    7655.7139    20.237456    19.664554     20.47202    8147.0566    8482.1983    7462.8662    7022.0772    -236.6919    533.89454   -166.88502    -3269.585 
16761000    263.31697   -4716.1521   -4208.3232   -4716.1521            0    7528.5367    19.826604    19.915959    20.743806    8191.0198    10936.982    5608.5576    6040.0705    507.18442   -778.32309    115.43344   -3308.9821 
16762000    268.10286   -4662.9341   -4145.8752   -4662.9341            0    6358.0255    19.955765     19.91792    20.505537    8150.4856    5233.2054    5870.0356    7970.8356    682.81356   -210.48007   -312.99651   -3390.1192 
16763000    260.21391   -4658.4124    -4156.568   -4658.4124            0    9157.5537    19.948995    19.706897    20.705521    8140.0192    10810.727    7851.6991     8810.235   -428.34747    1897.5526   -782.13748   -3069.4397 
16764000    263.67079   -4699.0724   -4190.5611   -4699.0724            0    9570.5735     19.61346    19.999001    20.518446    8048.3522    12440.234    8723.0053    7548.4813     207.4852     361.3017   -322.10832   -3067.1962 
16765000    256.00166   -4695.6396   -4201.9189   -4695.6396            0    8429.6902    19.978665    19.901126    20.455413    8133.0297    8704.4898    7937.4455    8647.1351    138.93607   -1162.1162    526.48821   -3202.0573 
16766000    260.50149   -4690.6113   -4188.2122   -4690.6113            0    8837.3696    19.810833    19.912408    20.599667    8126.1851    8299.8453    9537.9337    8674.3297   -579.60591    1927.6176    965.72711   -3140.8772 
16767000    270.02332   -4722.2476   -4201.4849   -4722.2476            0    7499.7792    19.632898    20.018275    20.662609    8120.7513    9136.6024    6754.5242    6608.2111   -575.80739   -1146.1481   -556.77367   -3313.2648 
16768000    247.80123   -4694.4566   -4216.5511   -4694.4566            0    10240.547    19.963903    19.768634    20.366289     8037.741     10960.98    9499.3361    10261.324    193.20686    90.669295    664.91408   -3016.1316 
16769000    249.69999   -4688.2105   -4206.6431   -4688.2105            0    7319.8556    19.808051    19.985787    20.683231    8188.0671    7322.8985    6753.4033     7883.265    334.91276    1364.9937   -714.55303   -3332.5457 
16770000    249.25292   -4673.4253     -4192.72   -4673.4253            0    9181.0106    20.018921    19.641888    20.491139    8057.3087     7653.871    11417.119    8472.0422     434.7716    578.91351   -757.02694   -3113.8817 
16771000     251.1211    -4702.927   -4218.6188    -4702.927            0    8344.1056    19.636745    19.805171    20.823211     8098.336    7901.1615    10526.272    6604.8835     880.7814      152.579   -12.762682   -3233.1305 
16772000    268.33427   -4702.9455   -4185.4403   -4702.9455            0    8641.8753    19.896301     19.78333    20.513907    8074.5831    6556.1772    10117.626    9251.8227   -134.53185   -185.49292    643.31101   -3167.7773 
16773000    247.03238   -4703.1762   -4226.7535   -4703.1762            0    7618.9275     20.02541     19.79144    20.429385    8096.8126    7833.1216    7343.8769     7679.784   -1269.3857    79.023909   -1319.8681   -3327.0823 
16774000     266.9453   -4664.9388   -4150.1123   -4664.9388            0    7881.1774    19.724716    20.135934    20.478696    8133.6377    8004.8934    7678.4338     7960.205    239.44129    721.59857    34.519112    -3215.241 
16775000    278.24736   -4691.3659   -4154.7425   -4691.3659            0    8755.3503    19.871425    19.769972     20.54899    8072.8253    8868.7594    9328.4017    8068.8898    268.53991   -734.86543    919.76955   -3123.9412 
16776000    270.70205    -4681.843   -4159.7713    -4681.843            0    8820.2312    19.778576    20.152019    20.372335    8119.9693    9841.1497    7606.7466    9012.7972    -82.33008    512.28061    613.62004    -3115.267 
16777000    268.78817   -4673.0517   -4154.6711   -4673.0517            0    9419.2829    19.848885    20.017855    20.333185    8079.0272    9393.4711     8868.993    9995.3845    806.89218    215.76393    1308.4856   -3044.8505 
16778000    257.10714   -4707.4821   -4211.6294   -4707.4821            0    8463.2282    19.889924    19.811045    20.614254     8122.844    8980.8415    8260.2607    8148.5825   -548.90915   -599.28623     476.9786    -3209.047 
16779000    260.52637   -4691.0462   -4188.5991   -4691.0462            0    7937.5753    19.854165    19.891309       20.645    8153.2336    8026.8196    9200.1381    6585.7682    152.52182   -354.69966   -1808.5745   -3244.7694 
16780000    276.67016   -4712.0548   -4178.4731   -4712.0548            0    7733.2661    19.799565    19.918324    20.621972    8132.7727    7367.5937    7757.8447    8074.3598   -140.55285     1244.935   -1560.5709   -3261.2448 
16781000    261.71644   -4674.6594   -4169.9172   -4674.6594            0    6365.4109    19.728576     19.89716    20.746305    8143.8091    5333.2303    7661.8755    6101.1269   -377.25785   -495.35494    6.9271178   -3413.9031 
16782000    268.47107   -4707.9245   -4190.1554   -4707.9245            0    6975.9477    19.721541    19.932601    20.834621    8190.1228    7503.2752    6863.8175    6560.7503    687.75813   -201.09237   -545.34627   -3356.9166 
16783000    260.82299   -4711.6625   -4208.6434   -4711.6625            0    7859.6169     20.05823    20.137094    20.304765    8201.3881    7756.7274    6720.7098    9101.4133    692.40182   -160.40161    110.64514   -3268.5638 
16784000     257.0946   -4711.1394   -4215.3109   -4711.1394            0     7264.133    19.806901    19.974093     20.49404    8107.9518    7487.6586    7676.7069    6628.0335     500.3211    786.00449    302.25835    -3356.355 
16785000    257.50213   -4742.3283   -4245.7138   -4742.3283            0    8665.5028    19.836665    19.850002    20.686977    8145.6593     8933.585    8870.9028    8192.0208   -584.29689   -471.26472    495.82539   -3216.2859 
16786000    258.77572   -4715.3642   -4216.2934   -4715.3642            0    7770.0076    19.680795    19.949389    20.507338    8051.5877    7047.0412    6905.4903    9357.4912   -758.37797   -34.857152    1262.1587   -3303.9069 
16787000    262.90848   -4707.5076   -4200.4665   -4707.5076            0    8264.4639    19.898528    19.623369    20.837533    8136.5598    8604.0545    8877.5198    7311.8174    337.71411   -9.9273367   -573.67235   -3219.7773 
16788000    262.39654   -4680.5399   -4174.4861   -4680.5399            0     8559.589     19.79422    19.887189    20.620557    8117.3114    8220.9192    10458.052    6999.7958   -143.07586   -448.69841   -258.48377   -3161.1792 
16789000    250.39619   -4696.5274   -4213.6172   -4696.5274            0    7744.9039    20.001532    19.980402    20.298659    8112.1287    7385.4161    7743.1466     8106.149    354.69601    -1240.404   -900.49497   -3297.3403 
16790000     259.7606   -4698.1732    -4197.203   -4698.1732            0    8130.2515    20.101819    19.769649    20.297158    8066.2107     9487.992    7059.9583    7842.8041    99.981079    1316.9799   -296.72076   -3240.7813 
16791000    259.30025   -4694.6615   -4194.5792   -4694.6615            0    7210.2048     20.09008     19.98488    20.336615    8165.1068    8541.4987    5983.1131    7106.0026   -183.30446   -244.55587    434.31213   -3335.9901 
16792000     255.2627   -4692.8256     -4200.53   -4692.8256            0    9136.8058    19.730691    20.064545    20.542379    8132.4678    9440.3304    9059.5926    8910.4943    430.53436    -1269.494   -54.547436    -3116.871 
16793000     269.5248   -4693.6403   -4173.8391   -4693.6403            0    8201.9101    19.918397    19.677261    20.654166    8095.1832    8385.9768    9394.4482    6825.3052    -208.4514    721.53947    237.44565   -3205.5221 
16794000    252.86496   -4704.0481   -4216.3767   -4704.0481            0    10510.775    19.853214    19.820862    20.293863    7985.7938    11565.735     8522.067    11444.524    1047.2463    374.20501    47.689402   -2992.2434 
16795000    259.54098   -4742.1623   -4241.6157   -4742.1623            0    8498.9513    19.968817    19.834556    20.515537    8125.6429    9216.9886    9201.5212    7078.3441    -922.0475   -158.99607    514.93373   -3234.4545 
16796000    251.86576   -4702.5855   -4216.8412   -4702.5855            0    7541.4447    19.710036    19.820005    20.713052    8091.6162    7360.4316    8286.3143    6977.5881    14.061859   -1355.8981   -372.04756    -3326.891 
16797000    258.41463   -4694.4683    -4196.094   -4694.4683            0    9363.4503    19.928321    19.784728    20.479416    8074.5507    8154.5676    9489.5626    10446.221    701.45338    1259.2793    372.06218   -3093.4631 
16798000    255.27632   -4719.5452   -4227.2234   -4719.5452            0    9009.8735    19.908183     19.79154    20.536471    8091.6491    8860.8763    10295.491    7873.2534    513.48805   -179.75578   -431.45909   -3163.9826 
16799000    260.26013   -4692.6286    -4190.695   -4692.6286            0     7109.318    19.916898    19.873345    20.617208    8160.6081    7803.4139    5354.2653    8170.2747    672.96114    586.96982    640.55735   -3344.5859 
16800000    246.36124   -4695.1136   -4219.9853   -4695.1136            0    11390.417    19.866006    19.806831    20.475952    8056.9316    12297.849     10393.24    11480.163    471.03825    1319.0763    247.57968   -2881.5875 
16801000    282.19179   -4680.3909   -4136.1603   -4680.3909            0    8147.9943    19.970926     20.06033    20.385774    8167.0176    6679.9964    8525.1256    9238.8609   -169.90334   -578.51889    448.17662   -3165.6725 
16802000    250.59741   -4698.2025   -4214.9043   -4698.2025            0    8501.1114    19.816973     19.89695    20.569413    8110.4646    8988.7237    9036.6679    7477.9426   -625.26178   -1715.9407     146.1825    -3209.369 
16803000    244.10449   -4705.7075   -4234.9314   -4705.7075            0    7877.5519    20.071917    19.680384    20.581887    8130.3193    7352.4071    8554.0096    7726.2389    261.51626   -1370.6173    184.95797   -3300.8715 
16804000     264.1073   -4690.5849   -4181.2318   -4690.5849            0    8852.2043    19.888106    19.958368    20.553189    8158.2626    10802.154    7507.2797    8247.1793    -988.5101   -248.94198   -813.19485   -3127.9975 
16805000    272.80623   -4718.5095   -4192.3797   -4718.5095            0    7916.7807    20.180759    19.663587     20.46041    8119.2254    6481.2612        10044    7225.0814    188.44589   -618.67967    265.33425   -3254.9492 
16806000    275.29388   -4681.8358   -4150.9084   -4681.8358            0    8400.4355    19.472431    20.074407    20.687735     8086.784    8902.5244    7583.0804    8715.7019    1122.3212    241.46144   -1049.8159   -3160.1824 
16807000     251.7924   -4710.3122   -4224.7094   -4710.3122            0    9813.8447    19.723901    19.815919    20.579447    8043.4197    9737.0574    9869.0169    9835.4599   -43.475963    -1483.441   -1440.3907   -3073.4961 
16808000    261.97696   -4694.5617   -4189.3171   -4694.5617            0    8327.4875    19.592762     20.04547    20.627614    8101.4155    9103.5944     7440.349    8438.5192   -842.31408    -1365.986    702.66108   -3205.4174 
16809000    253.79595   -4691.9202   -4202.4533   -4691.9202            0    8683.3417    19.952968    19.722756    20.535901    8081.4419    8722.7354    9095.8776     8231.412   -52.702477   -581.45045    471.39598   -3179.0387 
16810000    264.31283   -4712.6652   -4202.9156   -4712.6652            0    8434.7304    19.997682    19.910222    20.445632     8140.598    7803.3757    8975.1124     8525.703    278.91108   -656.14318   -2171.2604   -3201.5253 
16811000    255.84202   -4664.0745   -4170.6616   -4664.0745            0    9554.7827    19.855672    20.073323    20.236744     8065.745    10233.522    7567.1533    10863.673    345.19087   -478.08004   -512.60282   -3046.7266 
16812000    273.21401   -4700.5609   -4173.6447   -4700.5609            0    5133.2181    19.864161    19.953738    20.816883    8251.0685    4224.0907    5188.5165     5987.047   -174.34219   -243.82226   -748.30413   -3555.9472 
16813000    261.15708   -4670.1318   -4166.4684   -4670.1318            0    9591.9944     19.90022    19.873455    20.427043    8078.6121    10427.939    8602.2141    9745.8296   -454.29717    607.19959    875.87488   -3036.3562 
16814000    273.99994   -4722.5753   -4194.1433   -4722.5753            0    8677.8083    19.871467    19.817624    20.557713    8095.7358    8614.7098    9950.5307    7468.1843   -1267.0776   -1426.3054    1127.8259   -3169.5718 
16815000    247.95138   -4686.5247   -4208.3296   -4686.5247            0    9005.7306    19.803356    19.975206    20.445771    8087.8589    10604.379    8494.3885    7918.4246     307.5261    1055.7112    20.574681   -3146.0755 
16816000    278.57512   -4689.5361   -4152.2806   -4689.5361            0     8262.652    20.024261    19.814938    20.507123    8136.8056    7951.1908    8719.0672    8117.6981   -24.175947    836.71048   -196.96507   -3171.7768 
16817000    256.48188   -4703.7192   -4209.0723   -4703.7192            0    7687.4499     19.67638    19.992579     20.68686    8137.8297    7489.0963    8144.2752    7428.9782    152.25116    2097.6094    411.47521   -3296.7111 
16818000    261.99716   -4709.9713   -4204.6877   -4709.9713            0    7803.8356     19.92886    19.927405    20.525664    8151.3662    8416.8113     6559.752    8434.9436    461.74087     572.7038    984.34671   -3276.9731 
16819000     240.7843   -4706.0723   -4241.6996   -4706.0723            0    8220.1682    19.992338    19.902684     20.40986    8121.1075    7710.9478    7930.6268      9018.93   -561.96639     1395.735    2303.3579   -3268.1191 
16820000    266.42156   -4706.9355   -4193.1191   -4706.9355            0    8442.4936    19.956619    20.059062    20.380256    8158.4419     7940.812    8380.9826    9005.6861   -710.63697    1195.3979   -1174.3734     -3188.61 
16821000    257.23856   -4699.9071   -4203.8009   -4699.9071            0    6435.4548    19.996451    19.806271    20.749959    8218.1274    5016.0517    8374.3188     5915.994   -496.50959    41.256162   -324.08994   -3432.4926 
16822000    278.86011   -4677.6288   -4139.8236   -4677.6288            0    9936.6853    19.941177    19.811663    20.507321    8101.7837    11032.849    7424.5613    11352.646    549.34725   -776.47122   -1130.9252   -2965.7426 
16823000    251.43691   -4710.0289   -4225.1116   -4710.0289            0    8687.9694    19.871468    19.948517     20.29136    8043.6231    8875.1043    7367.8846    9820.9193    233.57954    2047.3513     228.8577   -3205.9434 
16824000     249.1244   -4714.0963   -4233.6389   -4714.0963            0    8267.0328     19.69519    19.906199    20.850312     8174.498    8975.5598    8114.5399    7710.9987    200.11227    1297.0269    224.95513   -3248.0708 
16825000    247.76938   -4691.5134   -4213.6693   -4691.5134            0    8768.0697    19.835853     19.91011    20.672789    8164.3875    9347.3433    8390.5831    8566.2825     248.5286    1356.3314   -476.20214   -3169.6621 
16826000    265.72128   -4710.8772   -4198.4113   -4710.8772            0    8902.3934    20.080444    19.829833    20.342931    8100.3893    8567.9207    8833.4674     9305.792   -564.42566    289.72247    1004.6824   -3146.7194 
16827000    262.86315   -4747.2059   -4240.2522   -4747.2059            0    6720.2194     20.00738    19.874301    20.389944    8107.7083    6608.1112    6914.0047    6638.5423   -109.35844   -1119.4307     762.6644   -3445.6359 
16828000    265.51296   -4666.0891    -4154.025   -4666.0891            0    9422.2092     19.75473    19.991521    20.530888     8108.204    9831.5488    9844.4197     8590.659    592.57522    864.36368   -937.66634   -3039.8503 
16829000    255.74829   -4703.6417   -4210.4096   -4703.6417            0    9715.1212    19.721068    19.835217    20.525499    8028.9933    9939.9321    9997.7137    9207.7179   -743.31384    786.79502    -623.9093    -3072.821 
16830000    262.46542   -4684.6747    -4178.488   -4684.6747            0    6005.0421    19.725292    19.781988    21.036486    8208.5521     6284.124    7048.2511    4682.7512    507.30192    791.04618     2522.301   -3459.6046 
16831000    256.76533   -4682.8431   -4187.6495   -4682.8431            0    6899.2886    19.865889    19.952299    20.631822    8177.8384    6835.1172    6436.9952    7425.7533   -343.28979   -241.68733    466.96132   -3364.8032 
16832000    264.99058    -4729.083   -4218.0264    -4729.083            0     9670.063     19.90932    19.802693       20.477    8073.2243    10620.124    9846.3605    8543.7042    397.09484     194.6144    347.80231   -3079.4761 
16833000    260.56961    -4684.742   -4182.2116    -4684.742            0    8552.2586    19.912219    20.073097    20.286982     8108.705    8127.3606    7138.3608    10391.054    53.202124   -419.61114    1890.9554   -3170.8459 
16834000    272.60631   -4682.3756   -4156.6315   -4682.3756            0    8663.6843    19.851095    19.898855    20.503562    8099.1956    9100.3306     8672.369    8218.3532    689.78648    851.15189   -231.69051   -3133.2904 
16835000    262.43066   -4713.3572   -4207.2376   -4713.3572            0    8752.8777    19.863996      19.7282    20.533376    8046.6379    9208.6283    8865.3591    8184.6457   -526.69931   -803.79835     2000.889   -3180.0703 
16836000     258.7493   -4702.9386   -4203.9188   -4702.9386            0    9069.2675    19.773057    19.843495    20.512415    8048.3855    9667.8597    8403.3351    9136.6077   -451.09457   -1540.0264    231.02684   -3139.3914 
16837000    255.46755   -4700.1344   -4207.4437   -4700.1344            0     8128.457    20.081169    19.714767    20.368018     8063.608     8730.532    7294.2031    8360.6358   -531.94854   -1578.1493   -361.57441   -3251.5417 
16838000    274.54181   -4725.9159   -4196.4389   -4725.9159            0    9972.5291    19.960083    19.909881    20.360772    8091.4293    9452.3772    10497.883    9967.3268    -295.3701      2185.38   -1419.1357   -3019.6286 
16839000    249.70587   -4725.8051   -4244.2263   -4725.8051            0    10304.117    19.800862     19.75411    20.613879    8063.0857    9428.6889    11565.395    9918.2671    127.64558   -879.01911   -18.560222   -3032.5463 
16840000    258.31575    -4689.889   -4191.7054    -4689.889            0     10298.25    19.749863    19.929083    20.339968    8005.7435    11545.715    9645.3908    9703.6425    971.63758    2166.7147   -57.968258   -2989.3275 
16841000    258.01535   -4707.4697   -4209.8654   -4707.4697            0     7535.369    20.303433    19.741895    20.413591     8182.344    6091.9453    9818.1289    6696.0328     566.4779   -357.63978    1011.8351   -3310.6615 
16842000    253.49661   -4697.4996   -4208.6101   -4697.4996            0    8248.8502    19.795625     19.97717    20.481542    8099.6424     7312.392    9449.7817     7984.377    406.71121    78.194511    543.52692   -3234.2148 
16843000    269.20837   -4691.8125   -4172.6215   -4691.8125            0    7684.0503    20.066834    19.596847     20.61385    8106.3282    6436.8493    7945.5234    8669.7781    620.65865    898.35743   -174.76216    -3264.194 
16844000    254.57759   -4691.3483    -4200.374   -4691.3483            0    8966.7048    19.852113    19.892586    20.622273    8143.9389    7169.1144    11228.118    8502.8824   -85.251312    557.64865   -845.73351   -3135.3896 
16845000    247.16744   -4714.9649   -4238.2817   -4714.9649            0    7512.0441    20.132016    19.956544    20.190559     8111.869    6843.7018    6686.5126    9005.9179   -64.731735    466.51008   -1425.1174   -3349.5822 
16846000    269.31453   -4706.1798   -4186.7841   -4706.1798            0    7107.4818     19.97161    19.922204    20.491729    8153.2179    7850.0715    6781.4412    6690.9325   -152.57097    460.80289    665.78253   -3341.6596 
16847000    262.31125   -4710.7619   -4204.8726   -4710.7619            0    6737.8896     20.11331    20.048879    20.341098    8202.5341    7319.1357    5375.7793    7518.7538    394.53437   -186.00114    -52.75873   -3398.8488 
16848000     249.0093   -4687.7565   -4207.5211   -4687.7565            0    8199.4956    20.037491     19.91459    20.452116    8161.1803    7054.3481    8877.3074    8666.8315    730.75703   -125.35202   -158.92325   -3231.5971 
16849000    260.10158   -4720.3598    -4218.732   -4720.3598            0    5317.5332    19.860513    19.912976    20.730905    8198.6981     4787.344    6884.2211    4281.0343   -949.92983    648.59787    -268.4774   -3582.9167 
16850000    270.87989   -4731.6236    -4209.209   -4731.6236            0    7042.3717    19.874085    19.885123    20.589259    8136.8472    7616.0843    7011.5219     6499.509    523.88505    900.78304   -1026.7715   -3373.5078 
16851000    249.13182   -4721.9557   -4241.4841   -4721.9557            0    8655.2711    19.826453    20.031281    20.410286    8105.9296    10475.293    7495.8003    7994.7204    402.41265    611.97292    418.59509   -3218.2867 
16852000    257.87982   -4695.3664   -4198.0234   -4695.3664            0    8521.5305    20.022629    19.810581    20.424348    8101.5204    8265.1503     7976.381    9323.0601    403.67434   -231.69355   -1223.1983   -3191.1845 
16853000    258.39334   -4677.5136   -4179.1804   -4677.5136            0     8938.555    19.756731    19.759997    20.680791    8073.6347    9248.0459    10763.062    6804.5569    34.967455   -551.00296   -550.37032   -3126.7041 
16854000    270.79815    -4700.722    -4178.465    -4700.722            0    8452.3481    19.858323    19.826545    20.589105    8106.3824    11831.305    5913.0487    7612.6909    138.42033    -597.1035   -528.90839   -3179.2007 
16855000    275.44456   -4685.4187   -4154.2007   -4685.4187            0    6829.0999    19.772151    19.992268     20.53005    8115.3262    8242.1773    4915.7792    7329.3433    -320.3414    612.49231   -472.58634   -3345.9514 
16856000    255.64244   -4721.3883   -4228.3603   -4721.3883            0    7299.1786    19.991819    19.660396    20.824486    8185.0032    6784.9475    9377.2635    5735.3247   -443.56785   -26.652598     1153.747   -3357.0583 
16857000    256.38912   -4689.4588   -4194.9908   -4689.4588            0    9238.7847     19.72606    19.960151    20.556417    8093.7835    10962.763    7670.2661    9083.3253    563.38409    1681.0969   -1385.7758    -3104.449 
16858000    255.14014    -4662.555   -4170.4958    -4662.555            0    7615.7174    19.885765    19.990558     20.48281    8142.4809     6491.646    10412.939    5942.5673     44.43503   -596.13033   -1143.8567   -3266.1314 
16859000    259.93005   -4695.9898   -4194.6929   -4695.9898            0     6730.108    20.105178    19.910617    20.338396    8141.5924    5747.7907    7178.2557    7264.2775    695.92669   -515.21292   -269.97292   -3395.5816 
16860000    269.65041   -4690.0535     -4170.01   -4690.0535            0    9749.9773    19.807883    19.837045    20.583372    8087.8214    11575.719    8853.1015    8821.1114   -1277.5555    907.67331   -571.90637    -3019.975 
16861000    264.30935   -4669.4691   -4159.7262   -4669.4691            0    9976.9014    19.961877     19.50159    20.734005    8071.5063    12003.762    8952.2806    8974.6616     405.4718    46.648202    1343.4195   -2985.2989 
16862000    249.41465   -4679.9731    -4198.956   -4679.9731            0    6606.1855    20.042243    19.805263    20.674362    8206.5207    6580.8326    5993.1227    7244.6011   -787.36647    -117.9941    18.372051   -3408.3033 
16863000    249.10122   -4709.8995   -4229.4868   -4709.8995            0    7642.9747    19.960613    19.873352    20.521799    8140.6752    10587.778       5091.7    7249.4467   -686.21148    989.96062   -406.04687   -3322.0869 
16864000    261.48183   -4690.5096   -4186.2199   -4690.5096            0    9324.2109      19.9168    19.703309    20.587563    8079.1129    10921.029    8109.6261    8941.9774   -229.21677    1516.5427   -206.39801   -3087.5894 
16865000    267.47775   -4716.2981   -4200.4448   -4716.2981            0    7576.9527    19.872396       19.999    20.433533    8120.8592    6676.4963    7686.0552    8368.3067    667.81473   -1341.7698     930.1739   -3303.0729 
16866000    249.83955    -4712.073   -4230.2365    -4712.073            0    8122.2501    19.883768    19.926117    20.543996    8139.6606    7217.2301    8618.5362    8530.9839   -233.39145   -736.14244    78.160756   -3266.0555 
16867000    255.83773   -4717.1996    -4223.795   -4717.1996            0     8556.557    20.217704    19.762347    20.250513    8091.0782    7341.1358    9257.6765    9070.8588   -97.104461    788.84152    739.72339   -3214.1206 
16868000    250.73373    -4710.091   -4226.5299    -4710.091            0    7119.3786    19.781654    20.025662    20.613667    8165.9124    9441.8676    5953.3727    5962.8956     897.8384   -571.18382    1521.9978   -3378.6727 
16869000    245.60996   -4690.5536   -4216.8741   -4690.5536            0    9367.0706    19.848043    19.858094    20.402612    8041.5732    11311.574    7784.5788    9005.0591    805.67023   -1144.8823    805.42887   -3118.3219 
16870000    243.33667   -4649.9134   -4180.6182   -4649.9134            0    9309.1794    19.864412     19.98714    20.394643     8097.342    10869.256     7710.548    9347.7347   -779.22145    16.078328   -100.96354   -3081.2839 
16871000    256.75329   -4730.0298   -4234.8595   -4730.0298            0    8421.0431    19.774032    19.826967    20.684515    8109.5521    7431.2415    10144.643    7687.2447   -873.74395   -1998.3005   -614.22351   -3238.9069 
16872000    272.40076   -4696.2609   -4170.9131   -4696.2609            0    7550.2111    19.861589     19.83357    20.684802    8148.2857    8858.0176    7412.6867    6379.9289    518.77101     1007.721    744.47802   -3273.6884 
16873000    268.94604   -4722.3816   -4203.6966   -4722.3816            0    6963.3596    20.004239    20.083501    20.333751    8169.1894    6388.0218    6860.6479    7641.4091   -117.65283   -257.35429    695.88725   -3374.0871 
16874000    266.52023   -4698.7953   -4184.7887   -4698.7953            0    8494.7309    19.931351    19.936825    20.327725    8077.5847    6923.0144    10250.659    8310.5191    723.07576    593.28313   -740.39907   -3184.0814 
16875000    274.03074   -4701.1829   -4172.6915   -4701.1829            0    7620.7641    19.939922    19.950611    20.602836    8196.0888    7466.8391    7792.5358    7602.9175   -137.63875    488.95818    44.833803   -3261.7698 
16876000    252.09467   -4717.2317    -4231.046   -4717.2317            0    7120.0699    20.022686    19.786476    20.555571    8143.6732     7361.769    7053.0344    6945.4062   -324.92378   -672.63125    1960.2416   -3385.4158 
16877000    260.53207   -4704.6767   -4202.2187   -4704.6767            0    8468.4815    19.755762    20.115173    20.396775    8105.4861    9625.0989    6862.6976    8917.6479     226.8309    1354.3249    1469.3603   -3201.1578 
16878000    255.05686    -4713.937   -4222.0384    -4713.937            0    6898.0522    20.080789    19.702441    20.573276    8139.6224    7016.9899    8512.6946     5164.472   -650.58418    27.420746    373.93956   -3403.1841 
16879000    268.75211   -4672.5518   -4154.2407   -4672.5518            0    6952.1711     19.78283    20.043338     20.51878    8135.9829    6844.5883    6309.8308    7702.0941    456.87372    453.98807   -812.67887   -3329.3311 
16880000    253.47267   -4726.9637   -4238.1204   -4726.9637            0    8720.9366    19.856648    19.689504    20.652444    8074.4356    11384.991    6936.1949    7841.6238    203.73392    521.77576    -749.4592   -3211.1659 
16881000    245.28126   -4699.1033   -4226.0578   -4699.1033            0      8524.65    19.750034    19.851365    20.373805    7987.8587    6913.0566    9571.2298    9089.6638    473.82616    1096.8366    1215.9013    -3232.981 
16882000    272.94507    -4692.367   -4165.9695    -4692.367            0    8090.4586    19.888948    19.779494     20.65938    8127.2623    8287.1364      8466.71    7517.5295   -41.109373    -90.49756   -91.921919   -3207.0253 
16883000    278.01343    -4702.787   -4166.6147    -4702.787            0    8523.8192    19.883286    20.168588    20.250647    8120.8699    10758.076    6316.7607    8496.6215   -333.64797    920.66604   -860.03283      -3157.1 
16884000    252.49933   -4708.7315   -4221.7653   -4708.7315            0    7511.0777    20.048466    19.999948    20.311068     8144.094     9306.423    5666.2405    7560.5697    90.287428    1434.3197   -932.75176   -3329.6501 
16885000    264.33591   -4723.8285   -4214.0345   -4723.8285            0    9046.1743    19.795862    19.849594    20.630747    8106.6419     9201.785    9503.1859    8433.5519   -773.46082    232.27491     1372.753   -3144.5319 
16886000    258.94598   -4689.8082   -4190.4091   -4689.8082            0    8812.9989    19.767033      19.8191    20.625134     8080.202       7238.6    11207.248    7993.1485    118.25607    223.67451   -1243.2849   -3151.8724 
16887000    260.22498    -4723.805   -4221.9392    -4723.805            0    7778.3127    19.960526    19.794915    20.671586    8167.6933     7073.222     9315.036      6946.68    1093.7298   -1262.7974   -279.82249   -3295.4066 
16888000    242.80502   -4688.9845   -4220.7146   -4688.9845            0    6358.1704    19.953918    19.975352    20.589873    8206.8464    5974.2468    7632.5993    5467.6653    408.10174    215.48518    307.24464   -3459.7151 
16889000    244.45299     -4727.38   -4255.9318     -4727.38            0    9181.2111    19.909755    19.866415    20.491747    8105.2128    8314.9775    10066.524    9162.1323    771.50898    1711.5364    1337.2595   -3170.6556 
16890000    261.04801   -4676.2617   -4172.8086   -4676.2617            0    10555.659    19.711068    19.738252    20.645126    8032.2344    8805.4319    11009.073    11852.473    62.978082    1270.1944    918.33884   -2936.2986 
16891000    271.61651   -4722.2005   -4198.3652   -4722.2005            0     8686.396    19.947314    19.933374    20.350448    8091.6892     8022.916    8361.9648    9674.3072    4.6737429    1305.9833    441.45476   -3173.2924 
16892000    255.78962   -4699.3723   -4206.0605   -4699.3723            0    8562.1503    19.900099    19.963487    20.446938    8123.0645     8199.248    9055.5926    8431.6103    645.76748    1406.2504    -531.9172    -3191.732 
16893000    254.21544   -4684.9021   -4194.6263   -4684.9021            0    9624.5687    19.789069     19.54061    20.804842    8045.0346    10500.902     10247.59    8125.2143   -595.81157   -481.56113    724.40669   -3065.3893 
16894000    266.31204   -4711.8221    -4198.217   -4711.8221            0    9179.8487    19.817615    19.828836    20.554597    8077.1393    10929.129    8561.2414    8049.1757   -604.04864    1142.5173    1297.0402   -3116.8602 
16895000    267.43148   -4725.3288   -4209.5647   -4725.3288            0      7357.16     20.03382    19.873896    20.377945      8113.48     6275.551    7918.8813    7877.0476   -14.629243   -1237.9649    985.70624   -3339.0156 
16896000    246.98349   -4698.9517   -4222.6232   -4698.9517            0    7323.0303    19.920405    20.002887    20.288484    8084.2631    6746.6669    8380.5164    6841.9076    -420.7777   -41.427043   -881.00045    -3359.233 
16897000    254.75128   -4723.3643    -4232.055   -4723.3643            0    7522.9965    19.857337    19.846186    20.590752    8114.6589    5328.0393    9598.0673    7642.8828   -813.44221    1072.7618   -17.262877   -3341.7537 
16898000    249.73491   -4705.4152   -4223.7804   -4705.4152            0    7456.6453     19.96219    19.724457    20.697428    8149.4746     7370.745    7937.9836    7061.2073    812.06411    1092.4965    1191.1154   -3337.5452 
16899000    272.30891   -4700.7433   -4175.5727   -4700.7433            0    10159.105    19.889408    19.978198    20.426453     8116.544    11699.819    8485.4875    10292.008   -848.93756    1547.8452   -119.89132   -2973.0245 
16900000     258.8096    -4710.151   -4211.0149    -4710.151            0    7127.8861    20.115239    19.852793    20.385448    8140.7998    5178.9347     8444.463    7760.2606    612.55393    1313.4359    443.40061   -3364.7551 
16901000    275.91743   -4697.6242   -4165.4942   -4697.6242            0    5751.4866    19.944609    20.011075     20.52804    8193.0088    7438.8366    3572.3384    6243.2849    419.06937   -555.39065   -242.84091   -3478.2684 
16902000    268.26993   -4703.9395   -4186.5584   -4703.9395            0    7335.9871     19.76281    20.041671    20.616023    8165.5889    8042.3005    5922.0256    8043.6352    11.708423    212.75446    488.01147   -3312.9396 
16903000    253.12979    -4701.876   -4213.6939    -4701.876            0    6787.5125    19.912392    19.689255    20.700566    8115.8673    3959.4816     9014.481    7388.5748   -38.318583    108.32473    748.71326    -3410.313 
16904000    262.49732    -4713.435   -4207.1869    -4713.435            0    7466.3776    19.850774    19.936318    20.635392    8166.4841     8431.279    8668.4891    5299.3648    401.94846    107.42268   -370.22105   -3317.9428 
16905000    271.12224   -4718.7305   -4195.8484   -4718.7305            0    10224.297     19.96367    19.676975    20.542686    8069.6729    8783.1237    12781.549    9108.2183    477.37103   -1108.1508    1181.6686   -2992.5724 
16906000    252.66743   -4723.2079   -4235.9175   -4723.2079            0    7623.2606     19.84921    20.038409    20.497347    8152.7496    7835.9304    7490.5007    7543.3507    324.63432    1530.6541    208.85065   -3329.5157 
16907000    262.74054   -4693.0539   -4186.3367   -4693.0539            0    8910.1192    20.009774    19.728051      20.5597    8116.0211    8869.1716    9550.2939    8310.8921    41.910437     368.4252    -195.4149   -3131.7007 
16908000      245.737   -4703.0043   -4229.0799   -4703.0043            0    9164.1043    19.691917    19.998449    20.571174    8101.0884    7831.6989    10419.887    9240.7271    443.66467   -58.481364    2077.6675    -3146.377 
16909000    254.38487    -4711.646   -4221.0434    -4711.646            0    8683.6711    19.947807    19.696965    20.534003    8068.0409    9447.3951    6852.9059    9750.7124   -210.16344   -187.67427   -523.94934   -3199.2871 
16910000    265.75462   -4707.0437   -4194.5136   -4707.0437            0    7687.6679    19.750808    19.753375     20.77564    8105.5145    8125.3796    8164.7824    6772.8417   -171.11516    605.11374   -222.90539   -3285.7496 
16911000     251.8366   -4703.9183   -4218.2302   -4703.9183            0    8936.6306    19.920082    19.858347    20.479845    8101.4147    9441.0712    8059.1475    9309.6731   -487.25168    1410.3392   -20.100664     -3162.36 
16912000    250.69745   -4671.3208   -4187.8297   -4671.3208            0    7167.0982    19.993817    19.995221    20.488062    8190.7341    6226.0648    7483.1833    7792.0466   -625.82488    418.13409    1884.1383    -3331.695 
16913000    263.58242   -4702.5343   -4194.1935   -4702.5343            0    7950.6784    19.915544     20.15458    20.227905    8119.2675    8249.5914    6091.4865    9510.9573   -42.035173   -276.01558   -816.82082   -3252.7442 
16914000    260.73898   -4706.8765   -4204.0195   -4706.8765            0    8186.4737    19.910472    19.780098    20.408354    8037.4442    7700.0502    7931.7639    8927.6068    338.02031    463.37174    1591.8092   -3244.4184 
16915000    268.85607   -4722.5024   -4203.9908   -4722.5024            0    7378.7264    19.719763      19.9458    20.692773    8139.0148    8808.2824    7237.2581    6090.6386   -94.079247   -225.20085    1155.3441    -3328.142 
16916000    262.89575   -4684.9977   -4177.9812   -4684.9977            0    7932.4706    19.792418    19.731621    20.708327    8087.3574    9028.6878    7990.3189     6778.405    598.05815    150.91104   -1399.7734   -3242.3795 
16917000    272.42343   -4721.9263   -4196.5348   -4721.9263            0    7250.8611    19.632103    20.319884    20.310866    8102.4523    6860.7339    7050.3277    7841.5218   -740.75985   -131.33384   -397.26584   -3339.7298 
16918000    260.85017   -4661.5743   -4158.5028   -4661.5743            0    9962.4213    20.083175    19.687423    20.431713    8078.4127     10794.78    8669.6559    10422.828   -422.53276    747.24803    228.13097   -2984.7765 
16919000    271.89665   -4693.0819   -4168.7063   -4693.0819            0     9256.575    19.769315    19.789805    20.677383    8089.6311    9353.6743    9908.1047    8507.9461    -402.8699   -1171.4487   -707.99212   -3076.6251 
16920000     273.6676   -4712.6618   -4184.8708   -4712.6618            0    6711.0957     20.07494    19.813173    20.450951    8134.3301    6935.3034     6391.493    6806.4907   -234.74402   -921.05365    793.01627   -3388.7278 
16921000    264.91119   -4700.7831   -4189.8796   -4700.7831            0    8180.1967    19.815726    20.140756    20.330934    8114.1509    7714.9737    6297.4118    10528.205   -512.08169   -811.73002    397.49998   -3221.8632 
16922000    256.58632   -4708.0826   -4213.2343   -4708.0826            0    7115.8726    20.063785    19.677824    20.651606    8153.4944    7031.3509    7485.3123    6830.9548    508.50517    115.55022   -465.68425   -3367.0834 
16923000    250.83877   -4711.9352   -4228.1716   -4711.9352            0     8295.157    19.694922    19.790466     20.79655    8105.9062    9297.6262    8269.8419     7318.003    -304.7789   -595.13963    488.69115   -3247.5486 
16924000    260.21055   -4703.3236   -4201.4857   -4703.3236            0    8393.6775    20.046233    19.905916    20.440225    8156.4395    7570.1493    8664.5705    8946.3128    921.59022   -887.97354   -1134.4574     -3203.03 
16925000    253.06646    -4697.916   -4209.8561    -4697.916            0    8509.9424    19.877487    19.833816    20.473282    8071.5184     8997.215    7078.9927    9453.6193    56.260142    31.595426    59.678944   -3208.1098 
16926000    251.25439   -4717.6991   -4233.1339   -4717.6991            0    8353.4497    19.729059    20.191528     20.42486    8136.4442    8138.5147    8417.6904    8504.1439   -411.80181    418.23296    1088.5778   -3241.8995 
16927000    250.69525   -4675.3472   -4191.8604   -4675.3472            0    7326.8078    19.906688    19.745609    20.606501    8099.7909    7707.3306    8493.3334    5779.7594    888.71383    50.245447     680.9209   -3326.3655 
16928000    253.06648    -4682.275    -4194.215    -4682.275            0    7772.7739    19.927408    20.239216    20.155371    8128.9656    6688.0347    7939.0294    8691.2576    604.82291    208.19754    533.39674   -3272.7323 
16929000    265.63028   -4686.8655   -4174.5751   -4686.8655            0    8537.7884    19.988959    19.877972    20.559097     8168.951    8000.1859    9358.5538    8254.6256   -210.66805    938.70968   -1549.7047   -3157.4191 
16930000    268.14614   -4705.9513   -4188.8089   -4705.9513            0    6654.5466    19.832886    20.010378    20.625377    8185.4601    8437.6421    5540.5059    5985.4919   -361.15549    79.516443    126.97234   -3394.4121 
16931000    261.41908   -4722.0706   -4217.9019   -4722.0706            0    6824.9667    19.969779    19.984753    20.485082     8175.414    6672.7087    6867.3849    6934.8064   -415.33002    772.48915    982.71382    -3404.161 
16932000    256.79041   -4691.2782   -4196.0364   -4691.2782            0    8117.4222    20.028358    19.572723     20.72933    8126.0945    6784.8112     10393.35    7174.1055      236.285   -1411.0743   -497.15358   -3234.0345 
16933000    253.91913   -4723.5067   -4233.8023   -4723.5067            0    6284.4234    19.837084    19.993098    20.563477    8155.5728    6837.6729    6319.2764    5696.3207   -142.50957    362.64859    185.57103   -3486.3288 
16934000     264.2707   -4736.9141   -4227.2458   -4736.9141            0     6274.416    20.190148    19.866332    20.342144    8159.3193    4277.0643    6839.2451    7706.9387   -653.22203    1292.7808    356.27312   -3480.6198 
16935000    269.05955   -4688.0183   -4169.1143   -4688.0183            0    8237.7363    19.834654    19.988885    20.448108    8107.1152    10229.845    5529.2935    8954.0699    -1316.339   -666.89666   -360.28672   -3195.1342 
16936000    267.92072   -4687.0176   -4170.3099   -4687.0176            0    6864.4941    20.373937     19.80211    20.249207    8169.4806    4159.4256    9359.8817     7074.175   -36.648822   -337.70168   -425.19602   -3352.4501 
16937000    263.63892   -4726.5353   -4218.0855   -4726.5353            0    6637.8726    19.805535    19.953957    20.697093    8179.4663    7012.7951    6202.3844    6698.4383    930.23423   -1413.7076   -548.54242   -3426.2595 
16938000    264.47983   -4698.3836    -4188.312   -4698.3836            0    8017.3553    19.964551    19.611137    20.765641    8130.3203    6416.5079    10079.692     7555.866    163.31055    628.84058    477.16446   -3237.6751 
16939000    240.25949   -4695.3382   -4231.9776   -4695.3382            0    8442.7201    19.780406    19.936122    20.483619    8077.6045    6413.1214    9411.6178     9503.421   -1186.5781    980.94628    186.37927   -3237.3949 
16940000    273.94413   -4696.1359   -4167.8116   -4696.1359            0     6338.485    20.176839    19.911719    20.351646    8176.3869    6623.8149    6233.0746    6158.5657   -737.81117   -182.82324   -1024.1342    -3411.984 
16941000    258.42321   -4689.0746   -4190.6837   -4689.0746            0    8176.4172    19.760787    20.016253    20.476874    8099.3594    9019.8805    7817.4472    7691.9239    418.06561   -817.05086   -712.30741   -3224.8784 
16942000      264.727   -4708.9024   -4198.3541   -4708.9024            0    5614.1982    20.216143    19.868664    20.480355    8226.2981    2837.3428    7209.6333    6795.6186     -187.028    -217.0763   -230.48548   -3524.8069 
16943000    261.48102   -4701.7279   -4197.4397   -4701.7279            0    7738.5856    19.963263    19.794852    20.619138    8148.0613    6687.1782    9370.0489    7158.5295   -455.28704    1609.6912   -394.18849    -3277.855 
16944000    276.91247   -4700.5324   -4166.4834   -4700.5324            0    9032.0766    19.593175     19.96116    20.585681    8051.1113    11572.222    7519.4404    8004.5672    -874.6226     564.2998      341.733   -3105.9623 
16945000    252.30121    -4677.033   -4190.4489    -4677.033            0    7969.7361    19.901239    20.005303    20.388981    8117.4716    6876.1295    10095.597    6937.4824    431.32359     346.3546   -231.20956   -3246.9517 
16946000    254.61918   -4691.0374   -4199.9829   -4691.0374            0     7543.792    19.913251    19.960176    20.364128    8094.1706    4968.7106     9655.119    8007.5463    222.33209    1818.6083    486.58327   -3309.4747 
16947000    259.44667   -4700.4259   -4200.0612   -4700.4259            0     7688.951    19.930175    19.725686    20.536932    8073.8148    7549.3382    8073.0998     7444.415     30.26231    442.33605   -1212.8062   -3294.7002 
16948000    256.27413    -4681.767   -4187.5208    -4681.767            0    8570.4282    19.868214    19.705713    20.662094    8089.5675    10055.873    7997.4306     7657.981    412.58841     233.1623    2085.3739   -3176.3984 
16949000    258.43612   -4675.1164   -4176.7006   -4675.1164            0    6942.1907    19.908087    19.849825    20.669029    8167.8225    7662.6736    6254.8901    6909.0085    116.70862   -103.43478    614.15884   -3349.7516 
16950000    256.44363   -4710.4344   -4215.8613   -4710.4344            0    5833.7417    19.949048    19.989934    20.501577     8175.622    5040.3851    6868.6257    5592.2143   -496.31197   -465.22158     -199.398   -3520.2864 
16951000    248.98203   -4687.9313   -4207.7485   -4687.9313            0    6886.1411     19.93715    20.039143    20.441527    8166.8682    6893.8928    6364.1946     7400.336   -307.63408   -1155.8301    1091.0651    -3387.572 
16952000    252.89099   -4684.1773   -4196.4557   -4684.1773            0    7570.4283    19.942929    19.910996    20.454475    8122.1363    5660.1199    9569.6891    7481.4759   -174.17406   -1188.5794    11.988962   -3299.7156 
16953000    249.20849   -4696.1234   -4215.5039   -4696.1234            0    9539.2583    19.660951    19.920552     20.58185    8061.0253    9978.1179    9667.3547    8972.3023    433.04266    675.20353    456.28481   -3094.0517 
16954000     249.4324   -4703.6229   -4222.5715   -4703.6229            0    9019.2441     20.04935     19.65125    20.540201    8092.7319    9069.0569    9947.8751    8040.8003   -249.22678    715.39511   -22.938845   -3158.0825 
16955000    247.93813   -4711.8143   -4233.6448   -4711.8143            0    6939.3238    19.857782    20.039509    20.488087    8153.0334    9031.2727     6198.242    5588.4566   -677.19363     860.4549    1206.9274    -3408.534 
16956000    264.12167   -4737.6659   -4228.2851   -4737.6659            0    7286.0179    19.996319    19.835839    20.589187     8166.573    6633.4645    7249.6958    7974.8934    367.01946    199.75278     752.1525   -3360.5124 
16957000    260.99903   -4711.9084   -4208.5498   -4711.9084            0    6914.2347    20.110104    19.931964    20.389131    8172.6543    5977.8197     7060.268    7704.6164    95.294366   -441.85437     214.9173   -3384.4437 
16958000    260.22899   -4685.3256   -4183.4521   -4685.3256            0    8798.5909    19.981341    19.798398    20.422337    8079.0469    7684.3652    10107.355    8604.0521    127.25017    523.89362   -552.02363   -3146.7615 
16959000    248.66447   -4691.6064   -4212.0361   -4691.6064            0    7519.2752     19.80838    19.845755    20.781519    8169.4699    8571.5612    6284.9624    7701.3021   -259.72815   -212.06315   -372.83552   -3316.1645 
16960000    270.49671   -4690.4652   -4168.7895   -4690.4652            0    7001.7089    20.040557    19.654308     20.62068    8122.1411    5781.9556    8934.8554    6288.3157    302.10495    1293.1878   -584.16522   -3339.4154 
16961000    265.48543   -4709.0136   -4197.0027   -4709.0136            0    7190.5576    19.681506    19.972978    20.653835    8118.9875    6682.4478    7406.3567    7482.8682   -775.08827    546.44886     126.9181   -3345.5896 
16962000    270.83264   -4712.3469   -4190.0234   -4712.3469            0    9690.6734    19.868447    19.787232    20.528758    8070.7083    10666.448    8642.4757    9763.0969    -1024.834    484.29347    798.82639    -3049.402 
16963000    273.67766   -4697.7115   -4169.9012   -4697.7115            0    9253.6269    19.785511    19.964163    20.463741    8083.2017    10610.208     9710.111    7440.5614   -278.49656    887.59477   -402.93699   -3079.0355 
16964000    272.38293   -4701.8824    -4176.569   -4701.8824            0    8590.1637    19.972846    19.898389     20.32499     8077.709    8892.6463    7185.2819    9692.5629    273.87267    214.30563    1350.0167   -3164.6039 
16965000     246.3865   -4717.2021    -4242.025   -4717.2021            0    7763.9167    19.937859    19.858241    20.469027    8104.3184     7938.844    7830.7506    7522.1554    8.1680178   -371.42066    1611.1451   -3324.3831 
16966000      246.541   -4698.5174   -4223.0424   -4698.5174            0    7330.8975     19.81225    19.793698    20.835587    8170.8356    10184.833    5135.3393    6672.5199    228.93644   -192.34183   -283.48519   -3349.4688 
16967000     251.8046   -4714.4352   -4228.8089   -4714.4352            0    9585.5226    19.931188    19.714825    20.510195    8059.2738    9838.1649    10158.983    8759.4203   -147.68357    82.120062    498.42037   -3102.1626 
16968000     265.8815   -4702.8396   -4190.0648   -4702.8396            0    6570.7325    19.937004    19.959911    20.564467     8183.441    6110.3876    6637.5632    6964.2466   -671.08031    530.62927    50.233021    -3405.867 
16969000    275.46563   -4705.4707    -4174.212   -4705.4707            0    7546.0969    19.920221    19.962657    20.335874    8086.7745    6067.5064    8259.3922    8311.3922    43.908266    71.768453     722.4905   -3284.2456 
16970000    246.59633   -4704.0656   -4228.4838   -4704.0656            0    8342.8383    19.940671    19.807198    20.445833    8075.4667    8700.1365    7326.2012    9002.1771    265.87713   -382.76665    8.3957056   -3245.9277 
16971000    255.24914   -4700.9038   -4208.6344   -4700.9038            0    9102.2281    19.989252    19.710855    20.574298    8106.3812    10876.242    7337.2103    9093.2316    383.66775    590.01928    1274.6664   -3132.5394 
16972000    260.23289   -4731.2824   -4229.4013   -4731.2824            0    7543.1935    19.941843    20.025167    20.462353    8171.4104    7192.5288    7403.7428    8033.3089    13.571908    678.56009   -465.88657   -3330.4666 
16973000    262.97844   -4720.6404   -4213.4643   -4720.6404            0    7653.0781    19.792351     19.97466    20.399568     8064.877     7483.489    7726.9725    7748.7726     350.8686    -917.6377     2022.162   -3313.3249 
16974000    262.22961   -4704.2744   -4198.5426   -4704.2744            0    7563.9954    19.937393    19.759133    20.605089    8117.2842     6972.546    8518.1669    7201.2732    1267.3445     -2378.08    469.24794   -3303.0997 
16975000    250.43333   -4698.2099   -4215.2281   -4698.2099            0    10178.631    19.971415    19.819296    20.419287    8082.3496    10315.625    10595.149    9625.1194    200.56691    75.836772   -929.01236   -3015.4446 
16976000    263.25836   -4712.2681   -4204.5523   -4712.2681            0    7475.3676    19.781155    20.104435    20.388949    8108.4598    6372.9292    6818.8715    9234.3021   -272.97912    1124.3517    128.12353   -3320.5634 
16977000    268.66106   -4653.8999   -4135.7644   -4653.8999            0    8609.1532    19.846233    19.909201    20.512577    8104.9837    8360.4843    9252.9689    8214.0064    98.461134    335.40351   -48.116943   -3118.1378 
16978000    268.74756   -4690.2443    -4171.942   -4690.2443            0    8245.2574    19.823564    19.860142    20.586489     8104.876    9555.2497    7525.5288    7654.9937   -40.389189    159.74875    173.74477   -3197.3419 
16979000    267.82187   -4701.0453   -4184.5283   -4701.0453            0    9531.0384    19.849247    19.694037    20.691563    8088.5764    7760.0704    13220.925    7612.1199    611.65989     1602.096   -362.03222   -3060.2128 
16980000    274.84406    -4692.225   -4162.1651    -4692.225            0    5864.3054    19.828691    20.034045    20.489337    8139.3663    4138.5381    7216.3007    6238.0774   -136.60788    604.76818   -151.69142   -3466.0468 
16981000    274.68279   -4707.9703   -4178.2214   -4707.9703            0    8197.3999    20.124417    19.832518    20.466132    8168.3988    5829.7548    11136.454    7625.9905   -671.77234    -553.3921    622.64238   -3201.6839 
16982000     272.1187   -4715.4059   -4190.6021   -4715.4059            0    8219.5337    19.836105    19.842758     20.60362    8109.6472     7845.248    9690.8414    7122.5116    90.427003 -0.099477681    -2594.507   -3218.4706 
16983000    258.68333   -4705.3404   -4206.4479   -4705.3404            0    6979.4963    19.624649    20.074745    20.582074    8108.5105    9168.8056    4369.9764    7399.7068    193.54732   -631.11091    335.15478   -3381.0924 
16984000    267.75884   -4703.3627   -4186.9673   -4703.3627            0    8875.0121    19.827871    19.841992     20.54765    8083.9481     7006.414    10441.305    9177.3175    621.26645    1126.1429   -1667.4193    -3140.638 
16985000    248.30426   -4708.0509   -4229.1753   -4708.0509            0     7690.131    20.035411      19.9335    20.358787    8130.8082    7156.2167    7713.2115    8200.9648    258.87898   -928.29277   -610.65343   -3317.2834 
16986000     249.5819   -4704.4784   -4223.1387   -4704.4784            0    7912.9046    19.925529    19.967295    20.467694    8143.2544     6982.519    7849.3141    8906.8806     453.5967     49.36129   -49.412312   -3283.3942 
16987000    247.25944   -4674.7197   -4197.8591   -4674.7197            0    6408.1036    20.016347    19.705451    20.700303    8164.8444    6918.1483    5771.6366     6534.526   -582.92132    389.65764    126.37681   -3434.8085 
16988000    272.51085   -4706.5231    -4180.963   -4706.5231            0    10007.154    19.773444    19.859096    20.472467    8039.1838    11044.144    9097.3116    9880.0069    425.46485    34.472175     159.7028   -3007.6917 
16989000    260.47003    -4706.944   -4204.6056    -4706.944            0    8815.8433    19.792181    19.708837    20.649691    8055.0493    10199.108    8365.1918    7883.2302    370.44541   -491.34187     2025.843   -3168.9677 
16990000    273.76486   -4720.6382   -4192.6596   -4720.6382            0       8008.1    19.860323     19.86342    20.575343    8116.8483      10224.1    7308.5274    6491.6729    537.18608    733.71442   -434.10621   -3244.6936 
16991000    260.19699   -4713.5825   -4211.7708   -4713.5825            0    9514.9662    19.861395    19.670533    20.639389    8063.4838    9665.2665     9169.137    9710.4951    160.79233   -11.806089    -484.4738   -3092.8332 
16992000    267.43585   -4712.5642   -4196.7916   -4712.5642            0    9006.0847    19.896043    19.963219    20.350542    8083.0126    8154.0519    9441.1353    9423.0671   -396.32678   -770.19507    257.23807   -3135.1323 
16993000    256.67341   -4687.4427   -4192.4264   -4687.4427            0     7971.809    19.957126    20.020125    20.503171    8191.9223     5288.014    9626.2846    9001.1285     53.15455    780.25826   -2459.8816   -3240.0281 
16994000       269.36   -4697.3551   -4177.8717   -4697.3551            0    9144.3958    19.895266    19.800656    20.577853    8106.4254    9010.0903    9480.5757    8942.5215    375.13024    307.52254    1060.1719   -3096.7856 
16995000    275.77109   -4678.2487   -4146.4009   -4678.2487            0    7870.0459    20.133157    19.868852    20.324638    8130.3171    8265.9524    6806.6731    8537.5122   -167.27702    2343.9384    1230.0098   -3213.2312 
16996000    258.44524   -4686.9443   -4188.5109   -4686.9443            0    6846.5395    19.781349    20.040425    20.561885    8151.2788    6939.8707     6878.527    6721.2209    500.32948   -9.0992865   -264.21306   -3374.6077 
16997000    270.87529   -4737.8061   -4215.4003   -4737.8061            0    7227.9919    19.893081    19.825511    20.778652    8194.9026    6772.9791    7425.7836    7485.2129    689.33334    737.18638   -11.656709   -3351.5523 
16998000    267.16708     -4687.94   -4172.6858     -4687.94            0    7313.4396    19.756687    19.918716    20.652719      8127.42    7016.1763    9202.1335     5722.009    1507.8757    322.26324   -244.36888   -3305.8232 
16999000    259.34723   -4721.9552   -4221.7823   -4721.9552            0    7345.3989    20.029737    19.741529      20.5912    8142.1234    6838.2656     8209.916     6988.015    -525.0791    -328.8876    549.64557   -3349.5565 
17000000    261.43514   -4654.5211   -4150.3215   -4654.5211            0    8954.9686      19.8614    20.009147    20.351343    8087.8205    9760.1419    8310.5659    8794.1981    332.39711   -879.77833   -1217.2369   -3094.0599 
Loop time of 478.963 on 64 procs for 250000 steps with 972 atoms

Performance: 90.195 ns/day, 0.266 hours/ns, 521.961 timesteps/s
99.1% CPU use with 64 MPI tasks x 1 OpenMP threads

MPI task timing breakdown:
Section |  min time  |  avg time  |  max time  |%varavg| %total
---------------------------------------------------------------
Pair    | 20.709     | 28.638     | 37.747     |  79.5 |  5.98
Bond    | 0.27062    | 0.27857    | 0.29132    |   0.8 |  0.06
Kspace  | 191.25     | 206.8      | 224.3      |  52.9 | 43.18
Neigh   | 3.1038     | 3.6942     | 4.575      |  23.4 |  0.77
Comm    | 97.238     | 111.06     | 123.62     |  65.2 | 23.19
Output  | 1.2175     | 1.2178     | 1.2233     |   0.1 |  0.25
Modify  | 118.9      | 121.46     | 123.76     |  10.3 | 25.36
Other   |            | 5.81       |            |       |  1.21

Nlocal:        15.1875 ave          20 max          12 min
Histogram: 4 7 13 14 0 9 11 5 0 1
Nghost:        2269.09 ave        2291 max        2239 min
Histogram: 1 4 3 5 8 12 13 5 7 6
Neighs:        4854.62 ave        7004 max        3456 min
Histogram: 5 8 12 8 8 15 6 0 1 1

Total # of neighbors = 310696
Ave neighs/atom = 319.64609
Ave special neighs/atom = 2.0000000
Neighbor list builds = 7835
Dangerous builds = 0

unfix		3
unfix		2
unfix		1

write_data	data.final.${pid}
write_data	data.final.0
System init for write_data ...
PPPM initialization ...
  extracting TIP4P info from pair style
  using 12-bit tables for long-range coulomb (../kspace.cpp:340)
  G vector (1/distance) = 0.37203404
  grid = 24 24 24
  stencil order = 5
  estimated absolute RMS force accuracy = 0.0035258369
  estimated relative force accuracy = 1.0617953e-05
  using double precision FFTW3
  3d grid and FFT values/proc = 2197 216
Last active /omp style is kspace_style pppm/tip4p/omp
WARNING: Not all mixed pair coeffs generated from mixing. Use write_data with 'pair ij' option to store all pair coeffs. (../write_data.cpp:312)

write_restart   restart.lmp.${pid}
write_restart   restart.lmp.0
System init for write_restart ...
PPPM initialization ...
  extracting TIP4P info from pair style
  using 12-bit tables for long-range coulomb (../kspace.cpp:340)
  G vector (1/distance) = 0.37203404
  grid = 24 24 24
  stencil order = 5
  estimated absolute RMS force accuracy = 0.0035258369
  estimated relative force accuracy = 1.0617953e-05
  using double precision FFTW3
  3d grid and FFT values/proc = 2197 216
Last active /omp style is kspace_style pppm/tip4p/omp
Total wall time: 0:08:01
