LAMMPS data file via write_data, version 30 Jul 2021, timestep = 5750000

1296 atoms
2 atom types
864 bonds
1 bond types
432 angles
1 angle types

-10.608040293431518 12.588040293431519 xlo xhi
-9.144189183242753 12.134187183242753 ylo yhi
0.049934128016069224 21.810064871993035 zlo zhi
-9.150605428122843 1.8353772496607352 2.7899385199908022 xy xz yz

Masses

1 1.008
2 15.999

Pair Coeffs # lj/cut/tip4p/long/omp

1 0 0
2 0.21084 3.1668

Bond Coeffs # harmonic/omp

1 450 0.9572

Angle Coeffs # harmonic/omp

1 55 104.52

Atoms # full

261 87 1 0.5897 -6.815128644486124 -4.917148641712157 1.2253012732109727 1 1 0
298 100 2 -1.1794 -5.893760853923405 -7.191864171180212 4.155488746568551 1 1 0
280 94 2 -1.1794 -9.793519653930096 -4.608413944774711 1.4872140575520059 1 1 0
299 100 1 0.5897 -6.527141109219082 -7.908124402276531 4.111976140411625 1 1 0
270 90 1 0.5897 -8.645217278482153 -7.295121692664334 2.110836399599177 1 1 0
163 55 2 -1.1794 -7.427122863193139 -7.886632078223187 0.9442521483017705 1 1 0
164 55 1 0.5897 -6.568448465513274 -8.183875262189636 1.2450297938589956 1 1 0
269 90 1 0.5897 -9.422134934956595 -6.029158399272986 2.4034821539547866 1 1 0
268 90 2 -1.1794 -9.277026643102413 -6.91941694853593 2.7238434657586783 1 1 0
275 92 1 0.5897 -10.458283837928454 -7.985832409823784 3.398114940610514 1 1 0
324 108 1 0.5897 -7.098100196476914 -4.244028390018265 3.5297260367413985 1 1 0
73 25 2 -1.1794 -8.565485667758077 -3.659728389745081 4.639240979883787 1 0 0
314 105 1 0.5897 -8.955009574359124 -6.607977764280351 4.509539058901705 1 1 0
313 105 2 -1.1794 -8.87906607696632 -6.270762101247467 5.402065854562071 1 1 0
315 105 1 0.5897 -8.782805345751855 -5.324595833684574 5.293765101249462 1 1 0
323 108 1 0.5897 -6.36761150429963 -5.567186341229352 3.4426779731050194 1 1 0
282 94 1 0.5897 -10.655632026705824 -4.193227758789162 1.4639159373406527 1 1 0
281 94 1 0.5897 -9.1754575315685 -3.883003132907593 1.3984818867958617 1 1 0
300 100 1 0.5897 -5.050353934153644 -7.606051024675164 3.973114145460252 1 1 0
322 108 2 -1.1794 -6.508687989896268 -4.747751186033458 2.968484595275184 1 1 0
165 55 1 0.5897 -7.632130324086752 -8.456388576953934 0.20299549110412232 1 1 0
259 87 2 -1.1794 -6.745225613322226 -5.183169315561359 0.30854761856830865 1 1 0
260 87 1 0.5897 -7.087399061646087 -6.076919736718561 0.291237801425705 1 1 0
429 143 1 0.5897 -6.186387062532561 -7.215918495412305 8.80828831252939 1 0 0
428 143 1 0.5897 -6.493979856401779 -7.073879945880286 10.283660938205381 1 0 0
427 143 2 -1.1794 -5.782207191344599 -6.998624307355845 9.648234433782466 1 0 0
419 140 1 0.5897 -8.890853009931362 -5.202621655869324 8.908963149424403 1 0 0
418 140 2 -1.1794 -9.592870849208673 -5.600614735947786 9.423575031954327 1 0 0
413 138 1 0.5897 -7.59882342654663 -3.5523031522903246 7.810040564538602 1 0 0
616 206 2 -1.1794 -7.363728267708931 -7.746815836024002 7.440029558102395 1 1 0
627 209 1 0.5897 -10.276321353791754 -6.656673888532746 6.436234461443014 1 1 0
618 206 1 0.5897 -7.767922743811063 -7.154061401605793 6.806410155238769 1 1 0
350 117 1 0.5897 -7.193520944334079 -4.247222206048723 9.95572363930437 0 0 0
414 138 1 0.5897 -6.776979443315696 -4.795393301034207 7.543196065448527 1 0 0
412 138 2 -1.1794 -7.348716633778476 -4.391737398341381 8.196106543392975 1 0 0
420 140 1 0.5897 -9.140893003815089 -6.170472723626057 10.045815928551454 1 0 0
351 117 1 0.5897 -6.967089338848884 -3.0309328573664995 10.828114256367488 0 0 0
349 117 2 -1.1794 -7.0751792391798976 -3.981190182522802 10.867486261305443 0 0 0
631 211 2 -1.1794 -5.5564959182013025 -5.427371527343518 6.33070654417906 1 1 0
626 209 1 0.5897 -10.460475624911396 -6.523758944915655 7.932879579930768 1 1 0
633 211 1 0.5897 -5.751771333384808 -6.039927012495177 5.621654587742359 1 1 0
684 228 1 0.5897 -8.515530347627301 -6.6857558227671365 14.60640229215027 0 0 0
740 247 1 0.5897 -10.730179874330549 -3.3038862304433714 11.823199398955197 1 0 0
652 218 2 -1.1794 -5.62077529872724 -5.343647873067758 12.9171992998033 0 0 0
682 228 2 -1.1794 -7.782010635743466 -7.004538764996065 14.080636113684085 0 0 0
780 260 1 0.5897 -7.532494113838913 -4.085817735130686 15.24172172510645 0 0 0
779 260 1 0.5897 -7.14270232614046 -2.9406983096191617 14.331515032503736 0 0 0
778 260 2 -1.1794 -7.89116671507549 -3.4739422366013724 14.59893848423096 0 0 0
768 256 1 0.5897 -9.544090438731747 -2.505266371896795 14.801054708067467 0 0 0
654 218 1 0.5897 -6.0497846013796845 -4.834451389245352 12.229554465821344 0 0 0
653 218 1 0.5897 -6.34031710390711 -5.757315786717377 13.393848891020962 0 0 0
661 221 2 -1.1794 -9.19172516053041 -4.308607094367113 12.480708381571668 0 0 0
729 243 1 0.5897 -7.976987213978966 -7.0794354823458665 12.105811682998233 1 0 0
766 256 2 -1.1794 -10.41861373243757 -2.235033008947661 15.080862907111461 0 0 0
663 221 1 0.5897 -8.526881952106272 -4.325321771125159 11.792406064665698 0 0 0
767 256 1 0.5897 -10.9510251462311 -3.0264906065893697 15.001777223691104 0 0 0
662 221 1 0.5897 -8.724186763273424 -4.004775614998756 13.258640677277215 0 0 0
788 263 1 0.5897 -4.682491078978997 -4.492956551565943 15.89003728646318 0 0 0
727 243 2 -1.1794 -8.181425803416467 -7.314193583867899 11.200725264117327 1 0 0
758 253 1 0.5897 -9.66534536683057 -5.305526546786712 16.32127711120406 0 0 0
1143 381 1 0.5897 -8.43455626355101 -5.03162593963045 21.642751558386987 0 0 0
1130 377 1 0.5897 -7.258896477101615 -1.689355013455593 18.83508189539285 0 0 0
1129 377 2 -1.1794 -7.550734120314176 -1.937125445031402 17.957856770078376 0 0 0
1142 381 1 0.5897 -8.692758412900206 -6.292379182145625 20.845541124483862 0 0 0
1152 384 1 0.5897 -6.74366734560732 -3.9613282266419017 19.86350976710821 0 0 0
1225 409 2 -1.1794 -8.14552624168762 -3.3603691000359834 20.90314742858734 0 0 0
1227 409 1 0.5897 -8.972956170508837 -3.034047516433567 20.549568316106267 0 0 0
1109 370 1 0.5897 -8.704067477162154 -3.4291272876752004 17.749476880191033 0 0 0
1108 370 2 -1.1794 -9.290059090571965 -4.185823877593797 17.761125056894475 0 0 0
1089 363 1 0.5897 -6.522648995780362 -4.671827821230385 17.57089665196884 0 0 0
1088 363 1 0.5897 -6.646858240346907 -5.824263002340013 16.59716585768781 0 0 0
1131 377 1 0.5897 -6.760236052323684 -1.8916020113707495 17.420181477218488 0 0 0
1219 407 2 -1.1794 -10.423512536871659 -1.8932526984492544 20.434123776688406 0 0 0
1151 384 1 0.5897 -6.028564959680578 -5.289667501031294 19.73665911044236 0 0 0
1150 384 2 -1.1794 -6.1496835963376455 -4.449819386462524 19.29368691091682 0 0 0
1097 366 1 0.5897 -9.15741232187358 -5.788716077927707 18.67882329400073 0 0 0
1087 363 2 -1.1794 -6.527491160768399 -4.875322707116146 16.635668709088534 0 0 0
1248 416 1 0.5897 -5.899342743473095 -1.5164486424859334 20.829117778272888 0 0 0
1141 381 2 -1.1794 -8.624244326807712 -5.964547953670136 21.742159433918 0 0 0
1226 409 1 0.5897 -7.994290065942692 -2.8317288937828584 21.686581141481042 0 0 0
1110 370 1 0.5897 -10.149949452056996 -3.820140211751668 17.96845182231157 0 0 0
1096 366 2 -1.1794 -9.02281315304278 -6.665056512250308 19.03959241716697 0 0 0
1121 374 1 0.5897 -4.681305002917581 -3.4637323839866223 18.533176299168883 0 0 0
301 101 2 -1.1794 -7.979548044406709 -2.2945741247336313 1.4599068246088591 1 1 0
69 23 1 0.5897 -11.267157154137383 -2.4483995044306317 3.084488114617179 1 0 0
272 91 1 0.5897 -9.480291417792262 -1.3299773013143499 1.2626863451511554 1 1 0
271 91 2 -1.1794 -10.20965226275196 -0.8615475689004697 0.8567377930792083 1 1 0
107 36 1 0.5897 -9.101850560338066 1.4394735158469274 3.334827584524068 1 0 0
256 86 2 -1.1794 -12.098892694976861 -3.197350462206402 1.668143936972274 1 1 0
258 86 1 0.5897 -12.570066639137371 -2.8674472885284388 0.9030898297303932 1 1 0
83 28 1 0.5897 -9.53385271925867 -0.8240855396716817 4.0493267446948895 1 0 0
67 23 2 -1.1794 -10.784859904309682 -2.2837938309659744 3.8946626208948265 1 0 0
59 20 1 0.5897 -13.52744893255284 -0.663141860527908 3.2814813080035456 1 0 0
68 23 1 0.5897 -11.43025860831215 -2.4152763665602857 4.589090256363688 1 0 0
52 18 2 -1.1794 -12.166939249277574 0.2674929171483722 2.6119858218874126 1 0 0
98 33 1 0.5897 -11.901940719164669 0.5771261592572952 4.4618919894925195 1 0 0
53 18 1 0.5897 -12.332822764780863 1.1166207589203179 2.2024799499209284 1 0 0
54 18 1 0.5897 -11.462259744084582 -0.11687046304637683 2.0906370636100124 1 0 0
82 28 2 -1.1794 -8.910235606952762 -0.115156408933764 4.206227315659031 1 0 0
74 25 1 0.5897 -8.218422538922749 -3.1010592848247702 5.3346090888162 1 0 0
99 33 1 0.5897 -11.645837531288102 1.813823815203616 5.29656952242417 1 0 0
84 28 1 0.5897 -8.052186574071186 -0.5375543344382141 4.1677136322232995 1 0 0
44 15 1 0.5897 -9.924855699169392 0.7480484348509311 0.34130313331697293 1 0 0
75 25 1 0.5897 -9.402322658028506 -3.2587515385064894 4.404532836262421 1 0 0
97 33 2 -1.1794 -11.850876066779385 0.8815805199441176 5.367867419671904 1 0 0
302 101 1 0.5897 -7.638878625011766 -2.0498924433399743 2.3202313016107 1 1 0
273 91 1 0.5897 -10.461232877942587 -1.4081225157736297 0.11238045994928311 1 1 0
527 176 1 0.5897 -11.771532344334123 1.6498054754549614 8.659862293204716 1 0 0
526 176 2 -1.1794 -12.521458650971185 1.3568533703023213 9.17739553219906 1 0 0
426 142 1 0.5897 -8.902003165527006 -1.515974765256522 7.025556280961399 1 0 0
411 137 1 0.5897 -13.350025890555916 0.5541435751757966 6.284793989547221 1 0 0
424 142 2 -1.1794 -8.082267614549078 -1.9752166717549002 6.843112034307589 1 0 0
402 134 1 0.5897 -10.95545830251445 -0.16797570418286867 6.512525618351599 1 0 0
401 134 1 0.5897 -11.323670168763073 -1.1643273307905027 7.591116331432262 1 0 0
400 134 2 -1.1794 -10.576895961387077 -0.7018541166149781 7.2109852813830235 1 0 0
537 179 1 0.5897 -9.487129989097072 -0.04980434707574055 8.547395768953502 1 0 0
536 179 1 0.5897 -9.617746076845535 0.10552181165086694 10.047509194489301 1 0 0
535 179 2 -1.1794 -9.002640627736605 0.22829940166399787 9.324577690064048 1 0 0
528 176 1 0.5897 -12.180554707797599 0.6363126187808046 9.7073388010127 1 0 0
435 145 1 0.5897 -7.675381996254723 -0.8684111491635171 9.67294469296351 0 0 0
522 174 1 0.5897 -9.535718584176545 2.3169797837541886 7.57051608846763 1 0 0
410 137 1 0.5897 -13.611475515521752 0.6787087813426584 7.770609853666261 1 0 0
433 145 2 -1.1794 -6.916065840918581 -1.3300617889403652 10.02861342566339 0 0 0
425 142 1 0.5897 -7.417336461682326 -1.2867811818474264 6.839334056349124 1 0 0
417 139 1 0.5897 -8.78350364914287 1.113620774903442 5.582652454514395 1 0 0
790 264 2 -1.1794 -10.720966734261257 0.10927286364442068 13.757673194591748 0 0 0
835 279 2 -1.1794 -11.355011681579164 -0.4123133590681771 11.00965021126294 1 0 0
762 254 1 0.5897 -9.22280062026612 2.1570948229426445 11.96376729648972 0 0 0
761 254 1 0.5897 -9.39326322601278 1.0759009831771547 13.009573309501986 0 0 0
760 254 2 -1.1794 -8.72883283302817 1.6099195493438003 12.574338456466636 0 0 0
888 296 1 0.5897 -10.460963306240195 3.0429139718858256 15.220872934322221 0 0 0
792 264 1 0.5897 -11.368522712245026 0.5263256533251184 14.32587733628377 0 0 0
769 257 2 -1.1794 -12.262726615291355 2.601660505171493 12.297309691094496 0 0 0
837 279 1 0.5897 -11.245232421305627 -0.05821339615077292 11.892063199348652 1 0 0
791 264 1 0.5897 -10.68132239450991 -0.7968755089834616 14.063557256221163 0 0 0
896 299 1 0.5897 -8.131002197310895 2.3524409673268334 15.497849427859897 0 0 0
770 257 1 0.5897 -11.898119684032643 2.7916741643582377 13.161627555112066 0 0 0
836 279 1 0.5897 -11.404380358975061 -1.359890768837598 11.135723126360574 1 0 0
771 257 1 0.5897 -11.54142327081888 2.7682592479994224 11.690663792654073 0 0 0
897 299 1 0.5897 -7.854130127177815 2.2789324923459766 14.011424849573423 0 0 0
865 289 2 -1.1794 -12.717142761313099 1.0891941774616978 15.557764818859177 0 0 0
866 289 1 0.5897 -12.613548742808316 1.7683700168445498 16.224186470880074 0 0 0
1009 337 2 -1.1794 -11.275586627908911 3.559990139676893 21.006158503397334 0 -1 0
1260 420 1 0.5897 -9.994293031185933 2.977737541412367 19.81916503841382 0 0 0
1246 416 2 -1.1794 -6.3589986059820305 -0.9590104342783459 20.201279727986492 0 0 0
1259 420 1 0.5897 -9.057737006737018 1.8123246836817142 19.581338167152527 0 0 0
1258 420 2 -1.1794 -9.309864352184633 2.6652665421783492 19.227536973640376 0 0 0
1205 402 1 0.5897 -11.943724796835074 1.3286799917447443 18.546106317489023 0 0 0
1217 406 1 0.5897 -11.816471956631055 3.613439108614907 17.588229844067225 0 0 0
1250 417 1 0.5897 -11.738644858257686 0.6574476952163906 20.68740238554982 0 0 0
1236 412 1 0.5897 -7.8943747116397995 -0.04669823515716054 20.45686211515624 0 0 0
1216 406 2 -1.1794 -12.373057332162414 2.835246389967107 17.560936986400318 0 0 0
1235 412 1 0.5897 -9.357261163811739 -0.4322722328848627 20.404555060802824 0 0 0
1234 412 2 -1.1794 -8.775902661786706 0.3130443482388223 20.55499908805125 0 0 0
1099 367 2 -1.1794 -9.816930777168967 -0.6385003950402499 17.239021068892843 0 0 0
1204 402 2 -1.1794 -11.835564004400632 0.4358974824688495 18.873951171916683 0 0 0
1206 402 1 0.5897 -11.160772906252255 0.054168015172956885 18.312657398381536 0 0 0
1249 417 2 -1.1794 -11.853974109590288 0.9867365275207316 21.578672702909895 0 0 0
1197 399 1 0.5897 -9.439459571557434 2.3692585166018425 17.389422181854712 0 0 0
1100 367 1 0.5897 -8.976453494203426 -1.0496666420996252 17.440778779279306 0 0 0
1195 399 2 -1.1794 -9.55185448538053 2.106771044188191 16.47588089537291 0 0 0
1218 406 1 0.5897 -13.2585172192361 3.1684325308341332 17.70608234459411 0 0 0
1196 399 1 0.5897 -9.643543282209144 1.1545630226063643 16.509327817160212 0 0 0
1251 417 1 0.5897 -11.73338467903635 1.9332308097330237 21.50232949356314 0 0 0
1229 410 1 0.5897 -7.9692588854528275 3.5782347004134287 18.52991491415711 0 0 0
1010 337 1 0.5897 -11.152288032717566 4.085525544450395 21.7965478050018 0 -1 0
1011 337 1 0.5897 -11.968207843338112 4.011239240022135 20.523643172482554 0 -1 0
1101 367 1 0.5897 -10.180492201462137 -1.1704673539401966 16.531256253479583 0 0 0
40 14 2 -1.1794 -15.195103013588877 3.843315498988243 1.7540038401415736 1 0 0
177 59 1 0.5897 -14.165507637230228 4.559755490515567 3.1865422358402427 1 0 0
42 14 1 0.5897 -15.633069515169478 4.353828101133525 1.07301184622408 1 0 0
108 36 1 0.5897 -9.77330670571188 2.7888042899994456 3.4776164011526007 1 0 0
175 59 2 -1.1794 -13.712377256853536 4.8531860136906815 3.9768924073211904 1 0 0
55 19 2 -1.1794 -13.273493923115165 6.341369020445901 0.7290328761368919 1 0 0
56 19 1 0.5897 -12.550984980409662 5.882399987875619 1.157419712952786 1 0 0
66 22 1 0.5897 -13.763457014968761 2.929470956660918 1.3894191812246899 1 0 0
65 22 1 0.5897 -12.27180248527435 3.186824094754348 1.402854523279238 1 0 0
64 22 2 -1.1794 -12.918438864771412 2.4881576350855905 1.3037536351503736 1 0 0
190 64 2 -1.1794 -11.986463163074962 6.972494412219339 4.003910445595686 1 0 0
192 64 1 0.5897 -11.193216950232246 6.437805939060672 4.036248533252162 1 0 0
191 64 1 0.5897 -12.70372336112719 6.33916502462308 4.026473074386237 1 0 0
45 15 1 0.5897 -9.669774186665999 2.0395703126101754 1.0887181532953123 1 0 0
183 61 1 0.5897 -12.006153756508235 3.8156978249037383 4.526766413259205 1 0 0
181 61 2 -1.1794 -11.223137157445763 3.4183157965780104 4.9077420003331325 1 0 0
176 59 1 0.5897 -14.357588363095214 4.748998638921732 4.6761091952881335 1 0 0
85 29 2 -1.1794 -10.973406565049148 4.572508381914 1.5942153189375354 1 0 0
162 54 1 0.5897 -14.508629415659161 6.803511024332693 2.0081225686241497 1 0 0
167 56 1 0.5897 -16.638352253728538 6.129723380240494 3.18539374403354 1 0 0
57 19 1 0.5897 -13.585679405536316 5.728751618562999 0.06319035614432102 1 0 0
86 29 1 0.5897 -10.579969674236597 4.788512509757789 2.439574665407754 1 0 0
43 15 2 -1.1794 -9.76282568095355 1.681660321660459 0.20592099445152517 1 0 0
508 170 2 -1.1794 -13.499036831292798 6.3526524976506344 7.0971795888335 1 0 0
645 215 1 0.5897 -12.70843137933634 7.003593816487635 8.705586783669586 1 0 0
644 215 1 0.5897 -12.767177625665465 6.919592965361771 10.215893992653742 1 0 0
643 215 2 -1.1794 -12.182186080200854 7.144532842437213 9.492535683858883 1 0 0
509 170 1 0.5897 -14.17257055094882 5.814993074105848 7.513530242265737 1 0 0
457 153 2 -1.1794 -10.023608236599536 3.280748950329322 10.722104345160353 0 0 0
532 178 2 -1.1794 -10.96576154741849 5.196859305721109 6.8488736074657925 1 0 0
543 181 1 0.5897 -10.57796559308135 6.360925626391749 9.659665811117135 0 0 0
510 170 1 0.5897 -13.985531753030473 6.947266849784485 6.526245219695762 1 0 0
533 178 1 0.5897 -10.378209964055996 5.946925863753714 6.757812389800923 1 0 0
521 174 1 0.5897 -10.327904574750525 3.5891687359359583 7.784723696146682 1 0 0
534 178 1 0.5897 -11.8207629478349 5.583443621660496 7.037711597879028 1 0 0
636 212 1 0.5897 -15.07702120803077 7.615654515946842 9.731921585968422 1 0 0
459 153 1 0.5897 -9.911208766178744 4.228282515747182 10.646159630176681 0 0 0
518 173 1 0.5897 -16.459919548914286 7.445490662480195 7.830978214933083 1 0 0
519 173 1 0.5897 -16.429858072955838 7.514124637373536 6.319050220558369 1 0 0
458 153 1 0.5897 -10.185875224427816 2.985770558013689 9.826143924908237 0 0 0
520 174 2 -1.1794 -10.284264691558045 2.670720896833968 8.05078576153996 1 0 0
182 61 1 0.5897 -11.016602192059416 3.9703892743253277 5.661841721992984 1 0 0
887 296 1 0.5897 -10.257275686994163 4.0472917333066025 14.106670393694277 0 0 0
875 292 1 0.5897 -13.934629044572635 4.084213547818601 14.847088753045172 0 0 0
876 292 1 0.5897 -12.48897276947148 4.52431815181235 14.758674066331075 0 0 0
848 283 1 0.5897 -13.773107850484314 3.6896730240103395 12.19011521879518 1 0 0
945 315 1 0.5897 -14.29613312643368 7.109654876188758 12.025290349139668 1 0 0
943 315 2 -1.1794 -14.29053741441166 6.710347617927761 11.155450683061318 1 0 0
900 300 1 0.5897 -14.578577876809419 7.565505531987183 14.491713270685624 0 0 0
899 300 1 0.5897 -13.752179833954386 6.419838849869761 13.947344882170759 0 0 0
898 300 2 -1.1794 -14.009784336642914 7.322755657907402 13.761212681072593 0 0 0
874 292 2 -1.1794 -13.384790963111245 4.861233639598565 14.746919295579858 0 0 0
886 296 2 -1.1794 -10.93274316945094 3.5305052403364137 14.545695211348734 0 0 0
944 315 1 0.5897 -14.420156264750233 5.776236835278395 11.319329626544368 1 0 0
847 283 2 -1.1794 -14.575493068245507 4.0807707623430485 11.844599272192406 1 0 0
869 290 1 0.5897 -12.563125000619253 8.215849551789356 13.052990124415139 0 0 0
650 217 1 0.5897 -15.527151671667411 8.771162947678723 16.266166403018616 0 -1 0
1209 403 1 0.5897 -13.365210680363772 5.962582390910283 16.357109194704876 0 0 0
1018 340 2 -1.1794 -11.82216082401934 7.403208627639513 20.499741260202455 0 -1 0
1019 340 1 0.5897 -12.381914361990212 6.632917602222436 20.402585374772965 0 -1 0
1020 340 1 0.5897 -10.941263206887378 7.086275739321826 20.300499768328816 0 -1 0
980 327 1 0.5897 -12.732979860365484 8.184852921125112 16.567717886396004 0 -1 0
1237 413 2 -1.1794 -10.857983758734509 5.078047563905438 17.829334484602537 0 0 0
1003 335 2 -1.1794 -13.471583837632432 5.033985727062493 20.398254370911836 0 -1 0
1030 344 2 -1.1794 -9.394849622820919 6.066573189071805 19.97099821743581 0 -1 0
1032 344 1 0.5897 -9.053125100200639 5.516460771426841 20.67582447515037 0 -1 0
1033 345 2 -1.1794 -14.67809258362453 8.003519017408957 21.484463194595982 0 -1 0
1207 403 2 -1.1794 -13.108588580815518 6.489453128350467 17.113844888801346 0 0 0
1208 403 1 0.5897 -12.309998843908387 6.07227639883825 17.436928407188898 0 0 0
1239 413 1 0.5897 -10.20606208648505 5.370196017039243 17.192384348619765 0 0 0
1238 413 1 0.5897 -10.489060881248708 5.320270159326837 18.67863530055851 0 0 0
990 330 1 0.5897 -14.32452037529712 6.955073524735928 18.326817627140176 0 -1 0
989 330 1 0.5897 -15.120127596375447 8.222199712176673 18.557731537233625 0 -1 0
1043 348 1 0.5897 -12.15042746453211 8.951762619296106 19.594874346862216 0 -1 0
1005 335 1 0.5897 -13.814736364807022 4.841210092224248 19.525806311197442 0 -1 0
1034 345 1 0.5897 -14.688385072564726 7.680587885270713 20.583518155974065 0 -1 0
1035 345 1 0.5897 -14.682285464073734 8.956782935427734 21.397791718357087 0 -1 0
988 330 2 -1.1794 -14.9924266786606 7.336178422271265 18.89671097849389 0 -1 0
291 97 1 0.5897 -15.318067879260685 10.937737403468917 4.361225262631556 1 0 0
174 58 1 0.5897 -16.51584657530146 10.0102145071292 1.6456046775312774 1 0 0
173 58 1 0.5897 -15.04699530685342 10.33139011693567 1.4702232611230412 1 0 0
172 58 2 -1.1794 -15.668514727630669 9.603528745018911 1.464550678770755 1 0 0
283 95 2 -1.1794 -16.833400644804446 11.965666378739078 4.075165776032642 1 0 0
161 54 1 0.5897 -15.365383554520758 8.0359247466179 2.2057009902328026 1 0 0
207 69 1 0.5897 -14.807620278019613 8.755356668330917 5.004100838312326 1 0 0
215 72 1 0.5897 -12.121458193074021 8.731424458050858 3.336714901174895 1 0 0
285 95 1 0.5897 -17.18613141726935 11.611993525593023 3.258720210197034 1 0 0
148 50 2 -1.1794 -18.1667333837138 10.765437966417705 1.9811747419468302 1 0 0
289 97 2 -1.1794 -14.508604600114932 10.516984135783622 4.6508931200982495 1 0 0
150 50 1 0.5897 -18.510466520216553 11.294677748309583 1.2614940236104886 1 0 0
284 95 1 0.5897 -17.51079997993176 11.785952517931728 4.726998324330501 1 0 0
193 65 2 -1.1794 -13.999805502488037 11.96650303330233 1.455086217068317 1 0 0
216 72 1 0.5897 -13.182045483056818 9.793912925692803 3.531968458715746 1 0 0
206 69 1 0.5897 -15.173117803866088 7.457080987850388 4.316640609274707 1 0 0
152 51 1 0.5897 -13.080507562898234 8.175872121425007 0.4485868588609713 1 0 0
153 51 1 0.5897 -12.72795033351198 9.339150455729675 1.3508798234077242 1 0 0
151 51 2 -1.1794 -12.892050467190433 9.114225620500983 0.43514871767780067 1 0 0
160 54 2 -1.1794 -15.218887951278903 7.153314292047638 2.5459725686108854 1 0 0
205 69 2 -1.1794 -15.06547379246341 7.85095194811066 5.18229688853539 1 0 0
290 97 1 0.5897 -14.257232580978222 10.997680959278602 5.439459097066774 1 0 0
525 175 1 0.5897 -11.820503363068932 8.095919279664626 5.3969087268556954 1 0 0
640 214 2 -1.1794 -14.248593142720072 12.105378029111469 6.835592732480911 1 0 0
630 210 1 0.5897 -12.920921796506821 9.268233341734371 7.545755130668358 1 0 0
629 210 1 0.5897 -13.842288837634566 10.454287419852706 7.73610665332286 1 0 0
628 210 2 -1.1794 -13.411585654836848 9.745867036806453 8.214510268448999 1 0 0
566 189 1 0.5897 -13.340252645461877 10.047725123824756 10.072438670313893 0 0 0
634 212 2 -1.1794 -15.469489878278754 8.200550135551618 9.083794063268002 1 0 0
551 184 1 0.5897 -11.122868337004066 8.62756290293756 9.615328200941876 0 0 0
642 214 1 0.5897 -15.03868919279515 12.631716321187556 6.9575988740169175 1 0 0
635 212 1 0.5897 -14.724901090885218 8.649256870417114 8.68341279983192 1 0 0
617 206 1 0.5897 -17.243266236113275 13.016723365385106 7.785954031644058 1 0 0
327 109 1 0.5897 -13.475560481051762 13.38732320341578 10.004431617587683 0 -1 0
523 175 2 -1.1794 -11.681174368224855 8.757487668237316 6.074438016742272 1 0 0
641 214 1 0.5897 -13.529855815057086 12.734863117812383 6.892517706501733 1 0 0
658 220 2 -1.1794 -16.523897469038587 11.831288777639687 15.275231551694297 0 -1 0
870 290 1 0.5897 -12.246370645505127 9.287888750516275 12.032153441652257 0 0 0
728 243 1 0.5897 -17.516925051578582 13.02554949284463 11.232180010469069 1 -1 0
671 224 1 0.5897 -13.587659519770149 11.078092296420929 14.095201672914127 0 -1 0
670 224 2 -1.1794 -14.117289352257977 10.515248619637093 14.659819365407618 0 -1 0
672 224 1 0.5897 -13.478596133552177 10.029759061098305 15.181892101483516 0 -1 0
956 319 1 0.5897 -16.91388397382721 10.74909165763089 11.927275026920492 1 0 0
660 220 1 0.5897 -15.6480291557035 11.451004155201774 15.209045777045297 0 -1 0
879 293 1 0.5897 -14.808224859435299 9.783740030241576 11.793145831577796 0 0 0
878 293 1 0.5897 -15.060126535193794 9.772161616124203 13.285771606143104 0 0 0
877 293 2 -1.1794 -15.50215422581913 9.671911489832352 12.44276936929713 0 0 0
683 228 1 0.5897 -16.815682834740677 13.365104521594455 14.357734446853694 0 -1 0
680 227 1 0.5897 -11.050156965821436 9.467160674368897 15.451436357016453 0 -1 0
659 220 1 0.5897 -17.114656572705716 11.078615089671493 15.251007878673592 0 -1 0
868 290 2 -1.1794 -11.83490564144047 8.622078907780017 12.583170240280033 0 0 0
681 227 1 0.5897 -10.953855392403067 9.603202287369067 13.946863765965096 0 -1 0
955 319 2 -1.1794 -17.67798261619174 11.17318158627432 11.536796751303305 1 0 0
664 222 2 -1.1794 -12.17753418569778 12.015478016705986 13.314270514839802 0 -1 0
565 189 2 -1.1794 -13.23022551316684 10.293646944234156 10.990855599739628 0 0 0
567 189 1 0.5897 -13.054729912865113 11.234330579057177 10.96804158266684 0 0 0
1140 380 1 0.5897 -12.163469369068407 12.814520192960083 20.94159225852404 0 -1 0
1138 380 2 -1.1794 -12.48580609358409 13.30397117910204 20.184813763566957 0 -1 0
1128 376 1 0.5897 -14.075792647569665 13.934276147117606 20.553179966249964 0 -1 0
1127 376 1 0.5897 -15.552789560365326 13.6425634554662 20.395571175157084 0 -1 0
1022 341 1 0.5897 -13.396688554455155 12.543081282447867 18.667312303850704 0 -1 0
1119 373 1 0.5897 -14.893055747733705 11.190499259565444 20.708523211449926 0 -1 0
1117 373 2 -1.1794 -14.138067394185478 10.677281125645104 20.996252790293752 0 -1 0
1044 348 1 0.5897 -12.935514337332503 10.230415488320231 19.79638523649939 0 -1 0
1042 348 2 -1.1794 -12.323872737642557 9.804413476609918 19.195936575857452 0 -1 0
1126 376 2 -1.1794 -14.935725842426951 14.354448967467997 20.56452792750924 0 -1 0
981 327 1 0.5897 -12.490554105257901 9.465222338827855 17.33817680507564 0 -1 0
1111 371 2 -1.1794 -16.619517824515228 11.968329542535345 20.33413835651409 0 -1 0
991 331 2 -1.1794 -16.20772523891901 13.745035943877683 17.2703738995289 0 -1 0
992 331 1 0.5897 -15.370705093389322 13.392565491934233 17.572537307856003 0 -1 0
1098 366 1 0.5897 -17.478717352865015 14.235757245908607 18.500189683464658 0 -1 0
1023 341 1 0.5897 -13.00917282828512 12.433271762306353 17.20810749485529 0 -1 0
1021 341 2 -1.1794 -13.750999388823761 12.33024451277902 17.804035099541363 0 -1 0
1001 334 1 0.5897 -14.645920742624106 10.666671399729376 17.843977761313052 0 -1 0
1000 334 2 -1.1794 -15.27042076252124 9.942157852299955 17.80964366051867 0 -1 0
1002 334 1 0.5897 -16.123251777916202 10.353766847455075 17.948919953847874 0 -1 0
993 331 1 0.5897 -16.46682199269479 13.16649256645569 16.553253984274075 0 -1 0
1013 338 1 0.5897 -10.963875678569618 10.657444470693376 18.5842232966767 0 -1 0
1118 373 1 0.5897 -13.770091416758852 11.178932860766961 21.72359912677837 0 -1 0
979 327 2 -1.1794 -12.492309689574046 9.104007339488076 16.45182676959817 0 -1 0
305 102 1 0.5897 -1.4582354926803482 -6.060127559860376 2.240073269412118 1 1 0
311 104 1 0.5897 -2.7122815693077484 -7.876490828374824 3.3574681787246368 1 1 0
243 81 1 0.5897 -1.1127690479543375 -5.504812873992546 5.415268929485062 0 1 0
318 106 1 0.5897 -2.7666132022743968 -3.954701653090553 1.6156552297107745 1 1 0
293 98 1 0.5897 -5.068751110470541 -3.861410436252908 2.218983367929712 1 1 0
304 102 2 -1.1794 -1.4030102824103619 -6.956496485548214 2.571302099393379 1 1 0
316 106 2 -1.1794 -1.940525991467096 -4.4172143592239665 1.474895168199095 1 1 0
242 81 1 0.5897 -1.216211760541821 -6.69006142830257 4.479220186489553 0 1 0
306 102 1 0.5897 -0.8855678353915941 -7.423385638975233 1.915255899054244 1 1 0
310 104 2 -1.1794 -3.4674955740594253 -8.360592137217234 3.6911669149879134 1 1 0
317 106 1 0.5897 -1.278873976203947 -3.725893874420694 1.4553077809325645 1 1 0
3 1 1 0.5897 -1.4339496179981719 -3.5652724709047705 4.28121541519509 0 0 0
241 81 2 -1.1794 -1.189992334231814 -6.458859524383573 5.407626264052064 0 1 0
199 67 2 -1.1794 0.5131321138024969 -8.028407676877618 0.7149287228259743 1 1 0
1262 421 1 0.5897 -1.9866785216847802 -5.699189893717222 0.08900567399011872 0 0 1
632 211 1 0.5897 -4.818707948720657 -5.8239133628140625 6.793946184771553 1 1 0
555 185 1 0.5897 -2.661578401436361 -6.925412701419244 6.428759605890341 0 1 0
554 185 1 0.5897 -2.8713611430725665 -6.676815213819431 7.9071771475427415 0 1 0
553 185 2 -1.1794 -3.31856183001819 -6.991461679045278 7.121627408212697 0 1 0
546 182 1 0.5897 0.0040946065554337 -7.404683675667151 6.672186204030633 0 1 0
356 119 1 0.5897 1.1699819972190415 -7.127292056999044 10.015507641969547 0 0 0
544 182 2 -1.1794 0.4852326131261542 -7.9625256079996 7.2833444491995305 0 1 0
348 116 1 0.5897 -1.3045373440297396 -6.526579452766838 9.845312289470252 0 0 0
347 116 1 0.5897 -1.015780177768594 -5.582442058428629 8.697748649635056 0 0 0
346 116 2 -1.1794 -1.7333256220695397 -6.020520162603935 9.155215140595612 0 0 0
336 112 1 0.5897 -3.3980329284882194 -5.026690262825863 9.623130325710115 0 0 0
334 112 2 -1.1794 -4.277554165178073 -4.649100110288291 9.62680931047085 0 0 0
359 120 1 0.5897 -4.65635177769671 -3.156705703494106 8.753035352034011 0 0 0
335 112 1 0.5897 -4.858810902468425 -5.396357243249145 9.767726893292183 0 0 0
404 135 1 0.5897 -5.379309641400006 -3.836430991460144 5.635363051402925 1 0 0
802 268 2 -1.1794 -2.6340108575508188 -2.086041542954363 14.814363366828205 0 0 0
793 265 2 -1.1794 -1.9912638544130115 -6.0947125554891075 15.55048583454775 0 0 0
795 265 1 0.5897 -2.7939176293481767 -5.651911427333964 15.27510087216035 0 0 0
678 226 1 0.5897 -4.100266961795522 -6.250013869102422 12.62898486780212 0 0 0
774 258 1 0.5897 -4.972836939739702 -2.259197146107245 13.073211983806832 0 0 0
787 263 2 -1.1794 -4.118494951187461 -4.464312974630156 15.117280979918064 0 0 0
718 240 2 -1.1794 0.10846168466135175 -6.880756641919387 13.691577196862045 0 0 0
699 233 1 0.5897 -1.0338175700102656 -4.265097472997729 11.668178469990142 0 0 0
697 233 2 -1.1794 -1.6697678761399253 -4.505499180728946 12.341847694675389 0 0 0
677 226 1 0.5897 -2.6231934524948093 -5.991583341365436 12.421857171620978 0 0 0
676 226 2 -1.1794 -3.26622626645611 -6.697552856060543 12.486750758632654 0 0 0