LAMMPS (30 Jul 2021)
Processor partition = 1
  using 1 OpenMP thread(s) per MPI task
using multi-threaded neighbor list subroutines
variable        pid world 0 1
variable        phase world IceII IceIII

shell cd ${phase}
shell cd IceIII
include Restart.lmp
echo both
log log.lammps
#include		in.partitions
include		in.temp
variable        temperature equal 132.05
variable	tempDamp equal 100.0
include		in.pressure
variable        pressure equal 7168.8
variable        pressureDamp equal 1000.0 # This is 1 ps
include		in.seed
variable        seed equal 745823

units		real
atom_style	full

read_restart	restart.lmp.${pid}
read_restart	restart.lmp.1
Reading restart file ...
  restart file = 30 Jul 2021, LAMMPS = 30 Jul 2021
  restoring atom style full from restart
  orthogonal box = (0.12114500 0.10653657 0.055431331) to (19.878856 19.893464 20.644567)
  4 by 4 by 4 MPI processor grid
  restoring pair style lj/cut/tip4p/long/omp from restart
  restoring bond style harmonic/omp from restart
  restoring angle style harmonic/omp from restart
  972 atoms
  648 bonds
  324 angles
Finding 1-2 1-3 1-4 neighbors ...
  special bond factors lj:    0        0        0       
  special bond factors coul:  0        0        0       
     2 = max # of 1-2 neighbors
     1 = max # of 1-3 neighbors
     1 = max # of 1-4 neighbors
     2 = max # of special neighbors
  special bonds CPU = 0.007 seconds
  read_restart CPU = 0.019 seconds
include 	in.setup
variable	out_freq equal 1000
variable	out_freq2 equal 10000
variable	out_freq3 equal 1000

timestep	2.0

neigh_modify    delay 7 every 1

include		in.tip4p
# This is TIP4P/Ice

# create groups ###
group ox type 2
324 atoms in group ox
group hy type 1
648 atoms in group hy

# set charges - beside manually ###
set group ox charge -1.1794
Setting atom values ...
  324 settings made for charge
set group hy charge 0.5897
Setting atom values ...
  648 settings made for charge

# ### TIP3P Potential Parameters ###
pair_style lj/cut/tip4p/long/omp 2 1 1 1 0.1577 8.5
pair_coeff 1 1*2 0.000 0.000
pair_coeff 2 2 0.21084 3.1668
bond_style  harmonic
bond_coeff  1 450 0.9572
angle_style harmonic
angle_coeff 1 55 104.52
kspace_style pppm/tip4p/omp 1.0e-5
pair_modify tail yes

thermo          ${out_freq}
thermo          1000
thermo_style    custom step temp pe etotal epair emol press lx ly lz vol pxx pyy pzz pxy pxz pyz enthalpy

restart 	${out_freq3} restart.lmp.${pid} restart2.lmp.${pid}
restart 	1000 restart.lmp.${pid} restart2.lmp.${pid}
restart 	1000 restart.lmp.1 restart2.lmp.${pid}
restart 	1000 restart.lmp.1 restart2.lmp.1


include         in.dump
dump            myDump all atom ${out_freq2} dump.water.${pid}
dump            myDump all atom 10000 dump.water.${pid}
dump            myDump all atom 10000 dump.water.1
dump            myDump2 all dcd ${out_freq2} dump.dcd
dump            myDump2 all dcd 10000 dump.dcd
dump_modify     myDump append yes
dump_modify     myDump2 append yes


variable natoms 	equal  "count(all)"                        # NUMBER ATOMS
variable H      	equal  "enthalpy/v_natoms"                 # ENTHALPY-per-atom
variable Vol      	equal  "vol/v_natoms"                 # volume-per-atom
fix AVG all 		ave/time ${out_freq} 1 ${out_freq} v_Vol v_H file vol_enthalpy.dat
fix AVG all 		ave/time 1000 1 ${out_freq} v_Vol v_H file vol_enthalpy.dat
fix AVG all 		ave/time 1000 1 1000 v_Vol v_H file vol_enthalpy.dat


timer           timeout 02:55:00 every 1000
New timer settings: style=normal  mode=nosync  timeout=02:55:00

fix 		1 all shake 1e-6 200 0 b 1 a 1
Finding SHAKE clusters ...
       0 = # of size 2 clusters
       0 = # of size 3 clusters
       0 = # of size 4 clusters
     324 = # of frozen angles
  find clusters CPU = 0.001 seconds
fix             2 all nph aniso ${pressure} ${pressure} ${pressureDamp}
fix             2 all nph aniso 7168.8 ${pressure} ${pressureDamp}
fix             2 all nph aniso 7168.8 7168.8 ${pressureDamp}
fix             2 all nph aniso 7168.8 7168.8 1000
fix             3 all temp/csvr ${temperature} ${temperature} ${tempDamp} ${seed}
fix             3 all temp/csvr 132.05 ${temperature} ${tempDamp} ${seed}
fix             3 all temp/csvr 132.05 132.05 ${tempDamp} ${seed}
fix             3 all temp/csvr 132.05 132.05 100 ${seed}
fix             3 all temp/csvr 132.05 132.05 100 745823


run             250000
PPPM initialization ...
  extracting TIP4P info from pair style
  using 12-bit tables for long-range coulomb (../kspace.cpp:340)
  G vector (1/distance) = 0.37208946
  grid = 24 24 24
  stencil order = 5
  estimated absolute RMS force accuracy = 0.0035237655
  estimated relative force accuracy = 1.0611715e-05
  using double precision FFTW3
  3d grid and FFT values/proc = 2197 216
Last active /omp style is kspace_style pppm/tip4p/omp
Neighbor list info ...
  update every 1 steps, delay 7 steps, check yes
  max neighbors/atom: 2000, page size: 100000
  master list distance cutoff = 10.8154
  ghost atom cutoff = 10.8154
  binsize = 5.4077, bins = 4 4 4
  1 neighbor lists, perpetual/occasional/extra = 1 0 0
  (1) pair lj/cut/tip4p/long/omp, perpetual
      attributes: half, newton on, omp
      pair build: half/bin/newton/omp
      stencil: half/bin/3d
      bin: standard
Setting up Verlet run ...
  Unit style    : real
  Current step  : 20750000
  Time step     : 2
  Walltime left : 2:54:59.89
Per MPI rank memory allocation (min/avg/max) = 9.226 | 9.228 | 9.230 Mbytes
Step Temp PotEng TotEng E_pair E_mol Press Lx Ly Lz Volume Pxx Pyy Pzz Pxy Pxz Pyz Enthalpy 
20750000    140.31305   -4978.8965    -4708.291   -4978.8965            0    6996.0948    19.757711    19.786928    20.589135    8049.2072    8101.8455    6485.4557    6400.9833   -256.37852   -227.52459    422.92083   -3887.0234 
20751000    132.98955   -4989.0643   -4732.5828   -4989.0643            0    6385.8015    19.673452    19.872726    20.601908    8054.6272    7826.6305    5043.2888    6287.4851   -582.75028    896.58152   -347.17024   -3982.4524 
20752000    133.51968   -4979.4319    -4721.928   -4979.4319            0      6259.71    19.734133    19.702484    20.661716    8033.5119     7409.268    5177.4372    6192.4247    419.02208    17.919878   -281.90626    -3988.537 
20753000    133.08393   -4980.4998   -4723.8362   -4980.4998            0     8828.404    19.824558    19.800493    20.333871    7981.7768    9498.7798    6970.8555    10015.577   -578.69874    556.15028   -736.43876   -3696.1568 
20754000    127.67631    -4980.565   -4734.3305    -4980.565            0    6012.0323    19.704371    19.881381    20.340672    7968.4605    5786.7803    5813.3376    6435.9791    586.67375   -978.99055      -96.291   -4035.6612 
20755000    130.74049   -4975.6901   -4723.5461   -4975.6901            0    6334.6827    19.739213     19.83492    20.482119    8019.2761    5766.8545    5991.8008    7245.3929    70.700097   -429.19687    222.29219   -3982.6865 
20756000    133.37359   -4960.7023   -4703.4801   -4960.7023            0    8866.5176    19.630178    19.640731    20.548171    7922.3689     9660.263    8393.9639    8545.3258    -283.8139   -58.144146    1234.1547    -3679.046 
20757000    136.39223    -4982.938   -4719.8941    -4982.938            0    7192.0584    19.825604    19.796045    20.347482    7985.7468    7359.5639    7302.4612      6914.15   -178.35152   -397.73854    87.469492   -3882.2788 
20758000    136.55269   -4980.3107   -4716.9574   -4980.3107            0    6773.2781    19.833546    19.884054    20.260602       7990.2    6569.9007    5104.5964    8645.3373    357.17382    1048.6234   -677.38352   -3927.6749 
20759000    139.85395   -4976.4595   -4706.7394   -4976.4595            0    6565.6479    19.709448    19.897247    20.426683    8010.6046    6660.2205    5641.8405    7394.8828    47.890506    -530.9887    1059.4502   -3939.6981 
20760000    128.39468   -4964.7788   -4717.1589   -4964.7788            0    6684.6295    19.936658    19.716327     20.49451    8055.9345    6356.6862     6900.872    6796.3304    382.18575    1131.6552    19.915787   -3931.7982 
20761000    126.07858   -4968.7438   -4725.5907   -4968.7438            0    6576.4743    19.883614    19.680752     20.53139    8034.4356    6404.9855    7539.2686    5785.1688   -690.60762    398.88987   -368.57957   -3954.9988 
20762000    135.07806   -4963.0188   -4702.5094   -4963.0188            0    5447.4221     19.83111    19.906857    20.398172    8052.6896    5538.0015    4869.1532    5935.1116   -485.23873     302.1746   -26.081991   -4062.7629 
20763000    141.07747   -4974.8243   -4702.7445   -4974.8243            0    6400.7021    19.824265    19.791478    20.440993    8020.0546    5225.1647    7399.0599    6577.8818    526.40888    30.022143      983.125   -3954.0911 
20764000    128.44937   -4972.9536   -4725.2282   -4972.9536            0    7508.0272     19.71913    19.719872    20.560539    7995.1451    6472.8637    8903.2651    7147.9527    81.007191   -575.72841   -279.71637   -3849.7848 
20765000    130.12723   -4975.5421   -4724.5807   -4975.5421            0    8451.4528    19.708368    19.765536    20.531511    7997.9772     8675.506    9113.1265     7565.726   -202.89786   -366.75239   -774.20677   -3738.7839 
20766000    135.84431   -4984.6799   -4722.6927   -4984.6799            0    7046.4647    19.875183    19.634992    20.539507    8015.5231    6681.2469    7179.6863    7278.4611   -333.11965    798.48117    102.41151   -3898.9738 
20767000    134.81393   -4980.9995   -4720.9995   -4980.9995            0    8130.3944    19.815819     19.73972    20.393919    7977.2588    6154.1977    8774.1374    9462.8479    188.44174    294.46034   -190.04286   -3775.1083 
20768000     126.9764   -4979.1593   -4734.2747   -4979.1593            0    6489.0084    19.811158     19.74417    20.444465    7996.9519    5489.3817    7397.1405    6580.5031   -322.73688    987.92758   -953.53971   -3977.4789 
20769000    128.27149   -4976.5344    -4729.152   -4976.5344            0    7332.8478    19.849466    19.777433    20.462604    8033.0348    8449.9544    6571.5653    6977.0237    503.30801    567.97398    -1.800189   -3870.0827 
20770000    131.08191   -4978.1151   -4725.3126   -4978.1151            0    7626.9667    19.602088    19.889422    20.481078    7985.0439    7409.1333    7944.3291    7527.4378   -409.46398   -441.00833   -591.40512   -3837.1243 
20771000    129.48258   -4987.4726   -4737.7546   -4987.4726            0    7419.4122    19.811632    19.725231    20.480609    8003.5968    7112.0046    7590.7103    7555.5217    87.736514   -368.53847    43.027773   -3871.7292 
20772000    131.14873   -4980.2116   -4727.2803   -4980.2116            0    6318.9744    19.788294    20.096527    20.288831    8068.3809    6313.4825    4852.7992    7790.6415   -552.80636    936.12307   -571.06445   -3983.7325 
20773000    129.83399   -4985.5687   -4735.1729   -4985.5687            0    6236.6704    19.743463    19.962627    20.425997    8050.5266    7644.5125    5439.9596    5625.5391    185.30047    1320.3576    1971.4124   -4002.9337 
20774000    138.67456   -4962.9621   -4695.5165   -4962.9621            0    7984.0387     19.64852    19.784611    20.501305    7969.6429    9255.4282    7611.0659    7085.6219   -611.07073   -111.09289    1023.5059   -3767.5391 
20775000    133.06334   -4964.8631   -4708.2393   -4964.8631            0    7340.8468    19.795639    19.741543    20.571946    8039.4438    6282.8288    9277.2016      6462.51   -286.99344   -424.41996    288.82327   -3847.5467 
20776000    137.22509   -4975.7685   -4711.1184   -4975.7685            0    5704.2239    19.817073    19.948789    20.411605    8069.2505    5873.5462    4754.3621    6484.7635   -80.838676    220.80769   -225.08539   -4039.8354 
20777000    131.74233   -4959.5439   -4705.4677   -4959.5439            0    6606.9557    19.754904    19.753047    20.540831    8015.4337    5679.5933    6704.3366     7436.937   -310.92479    1440.2858     -925.791   -3933.1352 
20778000    136.12227   -4991.7151   -4729.1918   -4991.7151            0    7009.3734    19.694174    19.877793    20.466598    8012.1964    7098.8321    7080.3608    6848.9273    118.61034   -1589.7052   -659.71881   -3910.1489 
20779000    136.44905   -4979.9846   -4716.8311   -4979.9846            0    6760.4982    19.881089     19.81324    20.331775    8008.8648    7161.0128    6190.0823    6930.3994   -456.36063   -230.08646    272.66404   -3927.1976 
20780000    132.61225   -4965.8957   -4710.1419   -4965.8957            0    6184.7602    19.898438    19.723606    20.382802    7999.6171    6009.8262    5401.8305    7142.6238   -341.60678   -482.64013   -851.03446   -3988.5893 
20781000    132.97602   -4968.1076   -4711.6522   -4968.1076            0    5776.4534     19.91985    19.925118    20.328202    8068.3726    6764.4038    3827.1117    6737.8448    111.20136   -759.71027    69.440517    -4031.943 
20782000    133.19708   -4976.5394   -4719.6576   -4976.5394            0    6850.7018    19.788392     19.82812    20.515754    8049.6967    7466.8866    6920.4302    6164.7884   -274.90896    -273.3532   -164.90252   -3915.4087 
20783000    133.21309   -4974.5921   -4717.6795   -4974.5921            0    7949.2476    19.876071    19.638002    20.508197     8004.889    6614.6377    9965.8343    7267.2707   -182.53141    543.16979    351.80764   -3789.6597 
20784000    126.78228   -4978.2489   -4733.7386   -4978.2489            0    6662.8811    19.651125    19.816365    20.570532    8010.4506    8166.1607    5475.4439    6347.0387    161.56115    801.23031   -1003.1279   -3955.3529 
20785000    124.83868   -4991.9844   -4751.2225   -4991.9844            0    7017.4494    19.644241    19.916953    20.506903    8023.3963    5955.3375      7878.09    7218.9207     201.6146    586.69458    86.378987   -3930.0897 
20786000    127.86595   -4985.8312    -4739.231   -4985.8312            0    6092.0611    19.779228    19.745388    20.560391    8029.8302    5782.7295    6158.5178     6334.936   -35.961151    439.08388    488.65028    -4025.809 
20787000    133.59626   -4980.6101   -4722.9584   -4980.6101            0    6700.9091    19.781022    19.703297    20.507708    7992.9067     6038.926    7483.4348    6580.3665   -215.74416    552.18417   -70.591612   -3941.8446 
20788000    135.45136    -4976.253   -4715.0237    -4976.253            0    6069.7219    19.595889    19.932693    20.522271    8015.9752    5483.6032    6669.3088    6056.2536    90.320745   -121.94242    38.850224   -4005.4442 
20789000    125.49984   -4972.2277   -4730.1907   -4972.2277            0    6582.1219    19.882471    19.721839    20.390937    7995.6718    5332.2702    7843.6106    6570.4849    287.84546    686.89131    -440.7825   -3962.6582 
20790000    128.19801   -4977.0765   -4729.8358   -4977.0765            0    5614.6662    19.874355    19.859467    20.410287    8055.8194     5669.614    4769.1616     6405.223   -169.19399   -728.57964    122.71821   -4070.1919 
20791000    135.99613   -4980.6945   -4718.4145   -4980.6945            0    7559.9458    19.836032    19.840983    20.306929    7992.1245     7078.935    6923.0674    8677.8349    331.98287   -457.14555   -576.26484   -3837.2504 
20792000    134.27066   -4982.7766   -4723.8244   -4982.7766            0    8187.5193    19.711609    19.919446    20.364063    7995.8336    7948.8485    8324.9447    8288.7646   -150.69883   -359.78041   -140.61732   -3769.0693 
20793000    132.48027   -4962.8227   -4707.3233   -4962.8227            0    8777.2047    19.757035     19.76083    20.362486    7949.8286    9095.0112    8508.2544    8728.3484    -159.8635    1091.5402   -609.20665   -3689.6934 
20794000    130.92005   -4989.2279   -4736.7376   -4989.2279            0    6737.5682    19.709743    19.882502    20.395412    7992.5338    7639.1367    5356.2307    7217.3374    276.01621   -406.66742    -75.32139    -3951.387 
20795000    123.94488   -4977.1297   -4738.0916   -4977.1297            0    7239.2552    19.938146     19.88187    20.203464    8008.8072    6860.8025     6735.843    8121.1202    706.88154    602.51591   -163.33191   -3892.5448 
20796000    133.18956    -4989.634   -4732.7667    -4989.634            0    7004.2604    19.816871    19.807124    20.391265     8003.882    6791.9183    6336.5625    7884.3004    155.46088   -392.84988    141.73836   -3915.1705 
20797000    133.29991   -4982.9061    -4725.826   -4982.9061            0    6601.8806    19.859691    19.743688    20.479694    8030.1607    6297.0982    7653.7115     5854.832   -211.63803    784.33613    316.05396   -3952.6688 
20798000    131.95738   -4985.7431   -4731.2522   -4985.7431            0    7077.1232    19.782619    19.778246    20.359436    7965.9449     6575.097    6765.0573    7891.2153   -73.160036     814.6375    325.42222   -3909.0665 
20799000    134.29554   -4968.6418   -4709.6415   -4968.6418            0    8257.3029    19.774688    19.622439    20.481528    7947.3984    7696.3763    8844.9836    8230.5488   -580.26158   -1125.9592  -0.91823289   -3752.5817 
20800000    128.29685   -4976.8282   -4729.3969   -4976.8282            0    7743.4254    19.651683    19.736483    20.499899    7950.9907    8370.7889    8949.7413    5909.7459   -307.56283    968.36083     419.2618   -3831.4922 
20801000    138.03968   -4955.7684   -4689.5473   -4955.7684            0    7246.0279    19.738483    19.870443    20.521723    8048.8742    8317.3878    6269.8036    7150.8924    272.74517    703.44036    90.613492   -3838.9753 
20802000    133.45532   -4993.9697   -4736.5899   -4993.9697            0    6222.4241    19.888461    19.844858    20.315709     8018.279    6032.1806     5365.162    7269.9298   -39.783343    623.21042    577.33036   -4008.9498 
20803000     121.2753   -4972.1977   -4738.3081   -4972.1977            0    7391.1661    19.674441    19.861684    20.480772    8003.2209    6223.6099    7518.9358    8430.9526    270.21283   -209.70215   -31.493839   -3875.6203 
20804000    134.25631   -4960.8276    -4701.903   -4960.8276            0    8826.0474    19.886233    19.750896    20.223804    7943.3221     6873.862    10444.584    9159.6965    391.31215   -1412.9731    708.01082   -3679.4477 
20805000    133.79606   -4976.7905   -4718.7536   -4976.7905            0    8465.2411    19.761454    19.814779     20.36238    7973.2736    8656.0498    8379.2483    8360.4251   -395.14332    120.67294    1484.7156   -3734.3983 
20806000    135.72966   -4955.2609   -4693.4949   -4955.2609            0    7362.1967    19.841893    19.705569    20.432824    7989.1481    6764.7971    7155.3343    8166.4587    387.11202   -291.43306   -59.615688   -3835.6993 
20807000    129.99415   -4989.7488   -4739.0441   -4989.7488            0    6649.2888    19.770183    19.751981    20.495838    8003.6305    7039.8149    6254.8776     6653.174   -123.31273     251.3959   -42.063809   -3962.9076 
20808000    129.78856   -4970.9488   -4720.6406   -4970.9488            0    5823.2057    19.851069    19.727422     20.46795    8015.4625    5879.2508    5203.3678    6386.9986   -387.08098   -32.014842    628.96429   -4039.9236 
20809000     126.4129    -4969.509   -4725.7111    -4969.509            0    7709.6654    19.745518     19.79948    20.524084    8023.9109    6716.4983    8698.0111    7714.4869    547.79902    159.59413    586.55317   -3823.5221 
20810000    133.68263   -4990.7572    -4732.939   -4990.7572            0    5995.2236      19.7604    19.768062    20.659205    8069.9979    7411.1927     5614.602    4959.8762   -352.67779   -351.29423    739.79875   -4027.3453 
20811000    132.91882   -4974.7661    -4718.421   -4974.7661            0    7482.5473    19.737383    19.800227    20.576155    8041.2574    7447.5853    7849.2623    7150.7942   -229.79755    1023.1443   -1431.0711   -3840.9166 
20812000    137.72386   -4974.3011   -4708.6891   -4974.3011            0    5234.1564    19.929937    19.673094    20.683144    8109.5202    5622.4238    5739.7436    4340.3018   -144.50947   -424.40903     187.9694   -4089.6505 
20813000    130.47867   -4962.1723   -4710.5332   -4962.1723            0    6843.4524    19.635533    19.843131    20.624598    8035.9715    8110.1895    5772.3875    6647.7802    -276.6988    65.455879   -51.434074   -3908.5052 
20814000    133.55504      -4981.7   -4724.1279      -4981.7            0    5825.8024     19.88408    19.798495    20.461117    8055.0273    3826.1438    6940.9055     6710.358   -366.53063    1082.8416     780.3034   -4039.7457 
20815000    132.14639   -4980.6817   -4725.8263   -4980.6817            0    7131.7219    19.810291    19.845093    20.353127     8001.569    6370.2603    7580.0452    7444.8601   -667.91126    574.20018   -419.47778   -3893.5923 
20816000     137.6641   -4964.6759   -4699.1791   -4964.6759            0    6633.6059    19.566651     19.88526     20.60795     8018.305    6389.5377    7232.2901    6278.9898   -563.28222    -795.7909    830.08006   -3923.4535 
20817000    130.41601   -4976.7898   -4725.2716   -4976.7898            0    8448.2572    19.692709    19.794217     20.42328    7961.0302     8189.044    8738.1362    8417.5912   -268.09493   -11.209412   -277.27898   -3744.3997 
20818000    136.98758   -4990.5797   -4726.3876   -4990.5797            0    6714.2855     19.88221    19.814597    20.423343    8045.9387    8662.7701    4887.4548    6592.6316   -86.297689    667.82087    1368.7967   -3938.5215 
20819000    123.79036    -4975.624   -4736.8839    -4975.624            0    7946.6301    19.813472    19.597433    20.599905    7998.8028    7866.7864    8611.4582    7361.6457   -667.04725    350.96691    106.46069    -3809.875 
20820000     135.2258   -4979.8016   -4719.0073   -4979.8016            0    5185.9921     19.72404    19.845834    20.526953    8035.0708    5289.9166    5357.9865    4910.0731    110.92954    275.18303   -13.236053   -4111.2958 
20821000    128.03144   -4967.4312   -4720.5119   -4967.4312            0    6699.9019    19.936125    19.811616    20.351382    8038.1215    4436.2753    8129.6706    7533.7596    746.65947   -290.20717    982.77151   -3935.0974 
20822000    138.86394   -4961.1253   -4693.3145   -4961.1253            0    7947.7085    19.876047    19.715904    20.486838    8028.2641    7813.0658    9357.4185    6672.6412    -374.1446    830.00172    351.58593   -3762.7651 
20823000    124.56277    -4984.579   -4744.3492    -4984.579            0     6437.195    19.689666    19.952802    20.422937    8023.4373    6664.6794    5273.4129    7373.4926   -211.88923    -202.7717   -522.70721   -3991.1098 
20824000    129.67894   -4988.6417   -4738.5449   -4988.6417            0    5615.4325    19.807653    19.790307    20.509959    8039.8942    5162.6774    6673.7886    5009.8314   -95.672894   -199.97055    414.09938   -4080.1152 
20825000    133.96134   -4981.1521   -4722.7964   -4981.1521            0    7759.6018    19.760443    19.849073    20.369424    7989.4269    7158.6603    7537.0201    8583.1251   -450.51543   -519.68108   -480.18997   -3818.6663 
20826000    131.01578   -4972.5297   -4719.8547   -4972.5297            0     7960.696    19.787983     19.90553    20.238473    7971.7381    9007.2932    6160.0848    8714.7099    -76.06685   -201.63887    186.62609   -3794.3472 
20827000    123.21198   -4983.7042   -4746.0796   -4983.7042            0    7346.4286    19.789706    19.828203     20.45206     8025.272    6754.5746    7412.6463    7872.0649    195.08251    1293.1364    641.78984   -3886.2509 
20828000    137.87291   -4970.0003   -4704.1008   -4970.0003            0    6775.9105    19.816445    19.768299    20.444042    8008.6961    6349.4452    6892.2953    7085.9911   -535.78125    469.14201    374.55036   -3912.6838 
20829000    131.18279   -4992.2346   -4739.2375   -4992.2346            0    6461.9309    19.792255    19.766545    20.568748    8046.9977    7865.8332    4992.6246    6527.3349    -224.7794   -17.839766   -588.32479   -3980.8834 
20830000    134.49863   -4975.6253   -4716.2334   -4975.6253            0    7086.9368    19.693392    19.965018    20.472933    8049.5262    7847.2754    6855.9307    6557.6045   -14.553856    4.9155434   -107.27508    -3884.269 
20831000    134.74612   -4980.3191   -4720.4499   -4980.3191            0    6230.3854    19.727249    19.914508     20.46942    8041.5848    6354.2861    5463.5649    6873.3054   -184.34178   -187.53571   -1011.7277    -3989.761 
20832000    121.25486   -4976.6116   -4742.7614   -4976.6116            0    4770.1855    19.876887    19.822649    20.497502     8076.273    4655.2696    5360.5091    4294.7777   -55.547274   -252.63144    241.02171   -4180.9091 
20833000    133.21462   -4972.2684   -4715.3528   -4972.2684            0    7043.1675     19.76568    19.834224    20.395021    7995.6014    7648.4179    5981.9654     7499.119    -163.2747    582.87927   -327.81417   -3894.0656 
20834000    137.49038   -4967.8367   -4702.6749   -4967.8367            0     6234.621    19.760467    19.839322    20.461878    8021.7575    6984.2616    5681.5466    6038.0549   -600.97344    425.66633    66.667805   -3973.2922 
20835000    128.33414   -4976.8764   -4729.3732   -4976.8764            0    7588.4867    19.849875    19.766082    20.340018    7980.4927    7154.5394    8360.6073    7250.3134    355.30869    74.580137    349.00105   -3846.1698 
20836000    128.89481   -4984.5401   -4735.9556   -4984.5401            0    5756.3131     19.96168    19.792564    20.366815    8046.7826     5688.455    6406.0159    5174.4686   -110.21339    420.29718   -154.96892   -4060.4288 
20837000    127.10109   -4975.9114   -4730.7863   -4975.9114            0    6822.4494    19.728523    19.770068    20.512305    8000.5012    6421.6537     7323.062    6722.6323   -352.27251     323.4956   -268.95105    -3934.749 
20838000     138.0371   -4987.0065   -4720.7904   -4987.0065            0    6546.6367    19.741055    19.673029    20.594592    7998.2465    6353.2685    7090.7387    6195.9031    86.941977    88.589946    1104.8991   -3957.1499 
20839000    126.74355   -4985.9872   -4741.5516   -4985.9872            0    8736.1965     19.65032    19.651151    20.612079     7959.383    8583.6164    9053.8355    8571.1375   -281.55438    963.93145   -348.76364   -3727.4588 
20840000    130.47688   -4976.4078   -4724.7721   -4976.4078            0    7499.3623    19.763448    19.848398    20.354533    7984.5295     6660.672    7932.9756    7904.4393   -640.69252    416.91846   -143.86786   -3851.5001 
20841000    131.15791   -4981.5829   -4728.6339   -4981.5829            0    7925.7093    19.730658     19.76125    20.473381    7982.6219    7482.5324    8942.4654    7352.1301    24.308959    708.55567    -108.8014   -3805.9359 
20842000    134.42288   -4983.7005   -4724.4546   -4983.7005            0    7752.4031    19.651917    19.695536     20.63423    7986.5828     7542.549    8822.1448    6892.5155    -246.6627    -181.6424    706.50237   -3821.4848 
20843000    140.38081   -4976.6409   -4705.9047   -4976.6409            0    7613.5694     19.68395    19.697944    20.499472    7948.3288    8582.1591    6918.8067    7339.7423    222.47339    658.57694   -639.56224   -3823.3532 
20844000    130.32582   -4968.4159   -4717.0716   -4968.4159            0    9323.9006    19.780569    19.699166     20.35308    7930.7961    10930.109    8099.9411     8941.652   -195.34049    1417.9419    604.12864   -3638.6457 
20845000    135.03407    -5010.577   -4750.1524    -5010.577            0    5724.5343    19.713478     19.92809    20.570232    8081.0563    5542.9878    5921.7024    5708.9128   -562.45547    699.05061    179.00712   -4075.4936 
20846000    138.18492   -4982.5624   -4716.0612   -4982.5624            0     7804.501    19.585593    19.802305    20.511065     7955.009    7942.6912    8572.0853    6898.7265    666.42664    737.78475   -419.69263    -3810.617 
20847000    129.81059   -4968.6701   -4718.3194   -4968.6701            0    6729.8894    19.783522    19.758302    20.387362    7969.1916    6148.9537    7569.3609    6471.3535   -10.160301     1316.637    456.05501    -3936.155 
20848000    129.08438   -4970.1557   -4721.2056   -4970.1557            0    6962.5564    20.027404    19.707324    20.297553    8011.1714    3989.5537    9521.8185    7376.2971    318.79733   -52.879331    -650.4527   -3907.7373 
20849000    130.99622   -4979.0638   -4726.4266   -4979.0638            0    6889.9267    19.885234    19.649688    20.543067    8026.9701    6804.3461    6845.3424    7020.0915    41.835534   -403.56285    707.52508   -3919.8565 
20850000     134.2657   -4979.3349   -4720.3922   -4979.3349            0    7038.9172    19.719632    19.773749     20.47345     7983.234    6136.8419     6861.801    8118.1087    26.104098    316.95691   -233.60796   -3900.8702 
20851000    129.26914   -4989.6009   -4740.2945   -4989.6009            0    7652.2649    19.908055    19.503127    20.538759    7974.5704    7342.6778    8037.5939    7576.5229    415.83544    -238.0922    1197.5291    -3850.329 
20852000    136.01805   -4981.0475   -4718.7252   -4981.0475            0    6006.6083    19.769163    19.709535    20.512494    7992.5092    6278.0756    5550.8338    6190.9155   -150.05118   -91.571831    411.23847   -4018.5797 
20853000    133.15636   -4971.0331   -4714.2299   -4971.0331            0    6577.4481    19.746614    19.915461     20.43714    8037.1693    6351.6678    6773.5197    6607.1569    142.78802    232.80406    89.396013   -3943.2617 
20854000    130.89922   -4964.3107   -4711.8605   -4964.3107            0    7257.0937    19.693485    19.949841    20.274498    7965.4834    7899.4786    5539.1213    8332.6812   -220.53112     547.2614    686.72931   -3868.8155 
20855000    133.13678   -4961.4744    -4704.709   -4961.4744            0    5741.3436    19.768382    19.821362    20.587243    8066.8283    4868.2584    6789.7913     5565.981   -215.78456   -52.234742   -135.82655   -4029.2605 
20856000    126.70991   -4976.8035   -4732.4328   -4976.8035            0     7468.165    19.646822    19.660711    20.648512    7975.9108    7854.4137    8682.8246    5867.2568   -17.130672    -1745.868    42.643912   -3863.7323 
20857000    129.85754   -4971.5765   -4721.1353   -4971.5765            0    6883.3967      19.6993    19.688932    20.618031    7996.8721    6188.8718    8620.9919    5840.3266    118.99687    637.29064   -939.66873    -3918.351 
20858000    134.25857   -4972.4013   -4713.4723   -4972.4013            0    6937.4489    19.683423    19.796985    20.569747    8015.4632    8899.2222    6133.2014    5779.9233   -573.52026    1523.4606    132.60289   -3902.5032 
20859000    136.55514     -4987.47   -4724.1119     -4987.47            0     6745.326      19.7563    19.790113    20.516487    8021.5238    7335.4059    6249.5158    6651.0562    463.17546   -280.93202   -312.66575   -3935.0053 
20860000    137.09547   -4973.0902   -4708.6901   -4973.0902            0    6994.7484    19.720138    19.809858    20.519968    8016.1898     5975.614    7720.4601    7288.1711   -244.87575   -1843.6697    515.48132   -3890.9487 
20861000    136.83279   -4964.7485    -4700.855   -4964.7485            0    7150.2502    19.726638    19.807675    20.394517    7968.9297    8146.5531    6334.3439    6969.8536   -44.470151    905.30909   -576.89159   -3869.8625 
20862000    132.26591    -4974.699   -4719.6131    -4974.699            0    6883.5023    19.841059    19.933901    20.329968    8040.6997    8122.1632    5851.0242    6677.3195    4.2522384    100.82439    193.74754   -3912.4167 
20863000    132.33945   -4985.6883   -4730.4606   -4985.6883            0    7941.7199    19.799352    19.637241    20.492643     7967.635    8974.9289    7583.9098    7266.3209    149.95195   -106.32425   -1235.4107   -3807.6344 
20864000    130.12647   -4965.5094   -4714.5495   -4965.5094            0    7464.9923    19.939575    19.681783    20.362254    7991.0933    6455.7903    7575.4748    8363.7118    205.50042   -244.26657   -991.19238   -3844.5651 
20865000    131.48669   -4973.1233   -4719.5401   -4973.1233            0    7111.8712    19.711638    19.741959    20.527879    7988.3494    7610.4718    7083.6992    6641.4427    76.200302   -205.92372    262.18032   -3890.9937 
20866000    129.35657   -4993.5884   -4744.1134   -4993.5884            0    5849.5313    19.887096    19.731206    20.454204    8026.1557    6169.0232    6238.9176    5140.6531   -319.47038   -45.610526     28.34346   -4059.4067 
20867000    129.87685   -4991.8215   -4741.3431   -4991.8215            0    6395.7972    19.801567    19.782886    20.457781    8013.9707    6311.2801    6643.3671    6232.7445   -61.633968    152.80059    405.57697   -3993.8308 
20868000    124.28587   -4967.0732   -4727.3774   -4967.0732            0     7632.768    19.668023    19.720801     20.56535     7976.665    6730.9719    8979.9566    7187.3756   -17.430645   -1083.5217    236.66082   -3839.4463 
20869000    129.28036   -4983.3484   -4734.0204   -4983.3484            0    6374.2041    19.786422    19.705372    20.563749    8017.7816    6024.9756    7751.5805    5346.0563    -213.8713   -67.778972   -8.8213594   -3988.6775 
20870000    131.28754   -4972.0801    -4718.881   -4972.0801            0    8580.2364    19.704953    19.631992    20.560694    7953.8526    10134.553    8111.4279    7494.7281   -278.30397   -576.63457   -277.00182   -3723.5841 
20871000     129.7693   -4995.9108   -4745.6398   -4995.9108            0    7104.4688    19.727449    19.816479    20.547407    8032.5686    6468.2053    7927.6593    6917.5418    208.75501    1536.6554    23.994684   -3913.3741 
20872000    133.05758   -4959.0261   -4702.4133   -4959.0261            0    9423.1168    19.660477    19.921573    20.253671    7932.7073    8560.9724    8386.2249    11322.153    25.415521   -142.31277    489.63533   -3612.2492 
20873000    137.48738    -4984.476     -4719.32    -4984.476            0    8233.9613    19.680955    19.871901    20.393136    7975.7146     9847.228    7503.5682    7351.0878   -466.90395    307.48401    -1168.189   -3761.5652 
20874000    128.74693   -4962.3359   -4714.0366   -4962.3359            0     7905.725    19.640882    19.691173    20.573687    7956.9148    9174.4422    7780.6331    6762.0997   -145.66535    276.41148   -580.16738   -3796.6291 
20875000    137.52263   -4976.6666   -4711.4426   -4976.6666            0    6288.8715    19.802144    19.796011     20.46015    8020.4495    5859.0822    7060.8847    5946.6475   -146.38567    2047.1645   -206.81699   -3975.8332 
20876000    120.18256   -4966.6026   -4734.8205   -4966.6026            0    7445.1326    19.702697     19.85977    20.397797     7981.475    7996.1347    6336.3938    8002.8693   -249.80875   -664.31665   -685.93016   -3868.1949 
20877000    134.25979     -4981.69   -4722.7587     -4981.69            0    8037.9049    19.901642    19.700975    20.327816    7970.1657    7193.8499    8211.2479    8708.6169    324.06353   -991.84873    1143.7976   -3788.4592 
20878000    129.49402   -4981.6123   -4731.8722   -4981.6123            0    7125.5359    19.682567     19.81161    20.492103     7990.759    6495.6954    8559.4563    6321.4561    171.63016    475.05445    821.99176   -3901.4834 
20879000    139.81526   -4971.2462   -4701.6007   -4971.2462            0    7288.7315    19.898315    19.640508    20.515421    8017.6933    7864.9031    7320.5895    6680.7019    68.037708    382.87661   -874.13696   -3849.3305 
20880000    125.87528   -4984.2033   -4741.4422   -4984.2033            0    6840.6996    19.875223    19.506937    20.614506    7992.3413    6823.2237     7164.865    6534.0101    608.51182   -158.25837    -725.6757   -3944.0896 
20881000     125.4886    -4983.772   -4741.7567    -4983.772            0    7526.6617    19.826365    19.734339    20.388655    7977.2693    6110.2349    7357.9139    9111.8364   -438.02578   -658.74072   -357.50408   -3866.1027 
20882000     134.9774   -4960.3016   -4699.9864   -4960.3016            0    7641.4526    19.717455    19.805542    20.408966    7970.0047     5491.794     9812.206    7620.3577    53.921377   -266.18851   -145.27828   -3811.7871 
20883000    135.34112   -4965.5942   -4704.5775   -4965.5942            0    7383.9269    19.994054    19.659834    20.291139    7976.0366    6980.4248    7960.6855    7210.6704    121.46805    539.14012    91.576935    -3845.662 
20884000    132.68686   -4985.6392   -4729.7414   -4985.6392            0    8005.6597     19.72183    19.749668    20.455249     7967.311    7875.2695    7575.2415    8566.4682    -230.2931    1026.0171   -311.59735   -3799.5233 
20885000    128.47968   -4970.6649    -4722.881   -4970.6649            0    8967.4566    19.809746    19.722817    20.391194    7966.9208    7990.7768    9705.1321    9206.4608    749.87939   -132.52869   -221.06885   -3680.9579 
20886000    132.84071   -4977.1205    -4720.926   -4977.1205            0    6301.4797    19.796463    19.802261    20.482305    8029.3653    6752.6412     5431.056    6720.7419   -643.46819     -362.291    746.90776   -3983.0223 
20887000    131.69443   -4984.3423   -4730.3585   -4984.3423            0    7394.5286    19.851541    19.883992    20.243882    7990.8246    7377.3222    6559.5626    8246.7011    -69.40813   -282.60049   -560.89919    -3868.615 
20888000    130.17234   -4978.1227   -4727.0744   -4978.1227            0    8367.5529    19.809633    19.838153    20.316647    7984.1686    8807.4467    7618.8958    8676.3161    342.35872    695.81743   -145.28683    -3752.749 
20889000    124.94529   -4985.9036   -4744.9361   -4985.9036            0    8112.6954    19.798306    19.902308    20.321726    8007.4102    6770.5999    8981.7953     8585.691     18.96456    189.49032    230.29337   -3797.5367 
20890000     134.5022   -4976.3402   -4716.9414   -4976.3402            0    6555.3313    19.759246    19.842329    20.412467     8003.105    5739.3241    7456.2505    6470.4194    118.60881   -44.042346   -205.18929   -3951.8223 
20891000    130.97866   -4978.4328   -4725.8294   -4978.4328            0    6619.6981    19.902433    19.782806    20.379995    8024.1334    7059.1579    6036.2367    6763.6995   -691.26011    485.57661    1596.3861   -3951.1675 
20892000    133.65888   -4977.5212   -4719.7488   -4977.5212            0    6695.0301    19.606292     19.70879    20.602179    7961.0174    6084.7441     7057.472    6942.8743   -67.887115    178.37817   -279.09041   -3942.4339 
20893000    132.46294    -4984.641   -4729.1751    -4984.641            0    6029.4747    19.853132    19.723742    20.522052    8035.9849    6061.3691    6126.5544    5900.5005    270.36005   -48.225534    325.24397   -4022.5412 
20894000    135.63848    -4981.466   -4719.8758    -4981.466            0    7254.6653    19.781861    19.813204    20.379735    7987.6753    6001.8307     7748.981    8013.1843     967.9893    1023.7706    805.74645   -3874.7649 
20895000    130.36962   -4979.1685   -4727.7397   -4979.1685            0    6781.8692    19.698763    19.904672    20.464738    8024.1712    6362.4457    7546.4838    6436.6782   -227.94226    674.39766    772.76675   -3934.0961 
20896000    132.55359   -4993.6958   -4738.0551   -4993.6958            0    6349.3479    19.711794    19.916129    20.461591    8032.8654    7495.9921    4691.9393    6860.1122   -362.79895    427.76244    1059.8047    -3994.222 
20897000    129.07777   -4990.2846   -4741.3472   -4990.2846            0    7629.5824    19.824567    19.778032    20.434945    8012.3566    7752.5349    6892.3706    8243.8417    196.01665    277.38402   -148.66547   -3849.8152 
20898000    130.84214    -4989.417   -4737.0769    -4989.417            0    6673.8126    19.948707    19.729162     20.45908     8052.106    6433.9587    7197.7182    6389.7611   -597.17213    -105.5552    1313.5678   -3953.3597 
20899000    131.81618   -4963.4358   -4709.2172   -4963.4358            0    7587.8526    19.692637    19.873053    20.380214     7975.854    7361.6253    6604.0308    8797.9019    -80.28192     32.12999     -880.718   -3826.6008 
20900000    124.73733   -4966.6911   -4726.1247   -4966.6911            0    7175.8273    19.761004      19.8819    20.325201    7985.4928    7210.4984     7301.483    7015.5006    -662.1239    560.45001   -72.019925   -3890.4262 
20901000    130.11577    -4953.257   -4702.3178    -4953.257            0     6577.073    19.832092    19.777777    20.464335    8026.8222    6551.1645    6066.3139    7113.7408   -285.74283   -601.33228    68.009707   -3932.3861 
20902000     136.3282   -4982.0695   -4719.1491   -4982.0695            0    6525.2049    19.717376    19.846127    20.545184    8039.6087    7065.6559    6430.2374    6079.7214    26.534436    637.31033   -263.81703   -3954.0724 
20903000    132.39835   -4980.2788   -4724.9375   -4980.2788            0    7073.0015    19.665785    19.943015     20.46356    8025.7068    6900.9321     6701.905    7616.1673   -533.62334    300.17095    -532.0355    -3897.066 
20904000    133.40646   -4979.7816    -4722.496   -4979.7816            0    7264.0966    19.753472    19.597403    20.653228    7995.2109     8196.732    6501.8075    7093.7503    218.80831   -370.50269   -986.38186   -3875.4882 
20905000    130.12241   -4980.5528   -4729.6008   -4980.5528            0    7872.9428    19.834219    19.845306    20.365882    8016.3395    7306.9005    7002.5134    9309.4144   -561.22222     155.6093   -1074.3928   -3809.1743 
20906000    127.23417   -4977.8883   -4732.5065   -4977.8883            0     6885.175    19.881643    19.904726    20.241361    8010.2893     6914.041    6522.4298    7219.0542    353.14877   -792.99844      1012.12   -3928.1676 
20907000     135.6785   -4977.2346   -4715.5672   -4977.2346            0    6334.3943    19.841505    19.688678     20.48924    8004.1834     7081.928    6567.0231    5354.2318   -315.01259    100.72012    52.421033   -3976.1356 
20908000     119.5319   -4964.5338   -4734.0065   -4964.5338            0     8566.314    19.701759    19.671082     20.48696    7939.8223    8894.4925    8966.3277    7838.1218   -869.50589    554.45924    234.91289   -3742.0774 
20909000    127.83557   -4981.0364   -4734.4947   -4981.0364            0    6860.1165    19.725557    19.774105    20.547716    8014.7441    6878.0005    7030.0452    6672.3038   -102.56332    1046.2201    122.26838   -3932.6375 
20910000    128.97851   -4970.8776   -4722.1317   -4970.8776            0     8068.112    19.678475    19.880386    20.455793    8002.6271    7544.5836    8218.1417    8441.6107   -319.91872    479.72095    10.138426   -3780.5015 
20911000    128.37044   -4980.7129   -4733.1397   -4980.7129            0    6745.0547    19.722157    19.873879    20.449433    8015.2732    6338.5413    7800.0778    6096.5449    631.17994   -408.61356   -1347.2525   -3944.6797 
20912000    130.40474   -4979.9435   -4728.4469   -4979.9435            0    6044.2831    19.815772    19.903478    20.462978    8070.6554     5868.004     5762.972    6501.8734   -113.65791    1952.8657    175.15414   -4017.0213 
20913000    134.60621   -4978.3739   -4718.7745   -4978.3739            0    7572.7804    19.743647    19.778566    20.478683    7996.9469     6005.815    8699.4089    8013.1174    227.91082   -641.64834    724.06041   -3835.5818 
20914000    126.85624   -4987.4929     -4742.84   -4987.4929            0    5719.0369    19.909694    19.865681    20.475773    8098.5702    6198.8206    4907.3154    6050.9748    -191.9586    780.37973    670.03625   -4067.3683 
20915000    131.11102   -4977.5598   -4724.7012   -4977.5598            0    7526.3193    19.753122    19.781102    20.527831    8021.0142     7776.191    7611.1567    7191.6103    -460.6942    834.29709   -225.70321   -3844.2854 
20916000    130.38146   -4974.3103   -4722.8587   -4974.3103            0    6585.5574    19.752161    19.768849    20.563069    8029.4156    6721.5783    6544.6502    6490.4436     247.2894    1228.7533    458.98756   -3951.6847 
20917000      132.435   -4980.9943   -4725.5823   -4980.9943            0    6435.1118    19.863404    19.798047    20.478877    8053.4536    6731.4583    6442.1406    6131.7363   -104.75766    1303.9281   -907.66331   -3969.7696 
20918000    134.16585   -4959.6492   -4700.8991   -4959.6492            0    7664.8363     19.92265    19.852681     20.25916    8012.8631    6922.3092    6983.0441    9089.1556    125.10949   -474.64248   -468.78063    -3805.191 
20919000    135.37652   -4967.7301   -4706.6451   -4967.7301            0    7367.8102    19.807593    19.864176    20.368708    8014.3026    6848.4941    7087.4013    8167.5351   -190.67768    551.20624   -1186.5501   -3845.4927 
20920000    127.80162    -4965.483   -4719.0068    -4965.483            0    7586.8406    19.812129    19.649658    20.550865    8000.4836    6744.5127    7633.6691    8382.3399    445.34503    1102.3736   -388.30543    -3833.783 
20921000    130.97682   -4967.8904   -4715.2905   -4967.8904            0    8387.6251    19.680916    19.857349    20.500789      8011.93    8145.4148    9424.5021    7592.9583   -133.71743   -355.76986    496.33612    -3735.232 
20922000    136.89182   -4988.3717   -4724.3643   -4988.3717            0    8127.4513    19.703709    19.781564    20.432385    7963.9345    8088.8904    8209.3608    8084.1029   -564.29218    1139.5427   -1291.1149   -3780.3949 
20923000    127.96977    -4979.865   -4733.0645    -4979.865            0    7190.4618     19.79518    19.843643     20.32652    7984.4297    6619.0039    7310.2106     7642.171    193.06197    365.03995   -373.63094   -3895.7732 
20924000    133.13217   -4980.6462   -4723.8896   -4980.6462            0    7484.5977    19.637101    19.958745    20.446991    8013.8275    9033.7952    5795.6355    7624.3625    -837.2555    627.53562   -236.43929   -3849.1388 
20925000    135.75352   -4986.8955   -4725.0834   -4986.8955            0    7003.3229    19.598706    19.852459    20.579967    8007.3049    8336.9168    6455.5648    6217.4872   -106.52329   -146.94477    492.73999    -3907.247 
20926000    128.33259   -4988.2843   -4740.7841   -4988.2843            0    7169.9368    19.721697    19.803648    20.507905     8009.599    8031.8625      6663.69    6814.2578    -579.5753    918.82161    567.89702    -3903.251 
20927000    129.35024   -4964.3337   -4714.8708   -4964.3337            0     7314.779    19.562682    19.950389    20.402855      7962.89    7528.8946    6392.4936    8022.9488   -96.284781   -57.430224    -522.4946   -3865.4013 
20928000     134.1959   -4985.3556   -4726.5475   -4985.3556            0    6518.7126    19.617784    19.894419    20.581344    8032.5781    6965.3436    6588.7719    6002.0223   -57.034299   -877.86107   -90.111514   -3962.9005 
20929000    131.02939   -4959.2745   -4706.5733   -4959.2745            0    7187.0964    19.767072    19.791375     20.48128    8012.6361    8145.1002    5972.4456    7443.7434   -266.03087   -692.26937    706.83331   -3866.7174 
20930000     133.4636   -4967.7178    -4710.322   -4967.7178            0    6778.2724    19.726744    19.785366    20.521184    8009.4356    5472.9183    8446.3713    6415.5276    32.144214    1102.5739   -171.14687    -3918.556 
20931000    136.15361   -4986.5138   -4723.9301   -4986.5138            0    7893.8458     19.59457    19.758463    20.628289    7986.4191    9392.2648    7780.7471    6508.5256   -213.28608   -849.10733    -217.0885   -3804.5044 
20932000    132.12972   -4979.7386   -4724.9153   -4979.7386            0     7610.731    19.707859    19.766098    20.533486    7998.7672    8740.9382    7742.6759    6348.5789    104.26182    493.99473   -464.10247   -3837.0945 
20933000    126.90113   -4983.5197   -4738.7802   -4983.5197            0    7141.0591    19.729595    19.940902    20.333906     7999.886    6214.5088    7802.6097    7406.0588   -67.772577   -150.22074   -569.99345   -3905.6319 
20934000    129.76831    -4981.027   -4730.7579    -4981.027            0    8585.2569    19.823579    19.506948    20.585419    7960.3308    9028.9194     8214.945    8511.9064   -579.93581    636.12371   -1099.3652   -3734.0674 
20935000    134.10333   -4977.7427   -4719.1131   -4977.7427            0    5801.8644    19.788744     19.81876    20.581114    8071.6734    4174.7308    7593.6847    5637.1777    264.13454    143.24158    508.34285   -4036.1346 
20936000    137.53087   -4977.7195   -4712.4796   -4977.7195            0    5998.4502    19.872157    19.794452    20.395055    8022.5674    4914.3418    6372.3928    6708.6159    77.306111    831.68744   -1330.8596   -4010.6555 
20937000    128.94168   -4975.6041   -4726.9293   -4975.6041            0    7258.7816     19.88473    19.824274    20.243075    7979.8271    6452.2435    6800.2568    8523.8446    695.14493     576.2121    701.86591   -3882.1697 
20938000    137.09523   -4976.8639   -4712.4642   -4976.8639            0     8204.119    19.668715    19.786444    20.438108    7953.9785    7836.4864    8797.7084    7978.1622    308.79591   -837.84716    500.41261   -3760.7814 
20939000    123.54569   -4980.8941   -4742.6259   -4980.8941            0    6137.2947    19.752783    19.714867    20.617013    8028.7492    7228.1593    5844.0226    5339.7023     -694.686    1859.4572   -575.44321   -4024.0035 
20940000    131.09169    -4957.853   -4705.0317    -4957.853            0    7112.2042    19.814838    19.767578    20.481891    8022.5797     7667.575    6866.0917    6802.9458    605.84723    614.64103    -474.6398    -3872.896 
20941000    135.60453   -4980.3642   -4718.8394   -4980.3642            0    6759.4357    19.750506    19.801605     20.44296    7995.0722    7823.6946    6844.9672    5609.6451   -283.06069    562.21715    664.54485   -3930.6897 
20942000    133.35727   -4971.2865   -4714.0958   -4971.2865            0    6798.7977    19.727468    19.736744    20.452893    7963.4565    6993.0991    7142.3816    6260.9126     412.4296      847.073   -871.98391   -3924.4913 
20943000    133.26698   -4976.5951   -4719.5785   -4976.5951            0    7932.9422    19.834267    19.726096    20.413584     7986.869     6370.869    9224.5947    8203.3628   -161.11961    1128.0488    137.84246   -3795.5471 
20944000    128.47863   -4951.9222   -4704.1404   -4951.9222            0    7489.2138    19.775835    19.829953    20.286107    7955.2752    6783.6271    6833.4733     8850.541   -259.97918    118.42805    175.95336   -3835.2453 
20945000    133.71021   -4977.7658   -4719.8944   -4977.7658            0    7756.1406    19.755936    19.813413    20.430177    7997.0359    9037.2654    7432.4174    6798.7389   -155.16874   -546.70381    21.041644   -3815.3069 
20946000    129.88203   -4979.9533   -4729.4649   -4979.9533            0    5710.8728    19.774302    19.788928    20.584867    8055.1103    6459.8103    5614.8055    5058.0025    242.07991   -383.12453   -582.04684   -4058.5771 
20947000    133.95367   -4980.2276   -4721.8866   -4980.2276            0    8009.3415    19.812866    19.682721    20.476946    7985.4176    8683.2007    7355.6421    7989.1816   -394.43209    81.710341   -791.08607   -3789.1257 
20948000    127.10985   -4968.6023   -4723.4602   -4968.6023            0     7694.293    19.886773    19.782399    20.336499    8000.5431    6992.9974    8287.0784    7802.8031   -239.28093   -756.08935   -612.78876   -3825.6923 
20949000    139.89166   -4976.4437   -4706.6509   -4976.4437            0    7164.3689    19.930964    19.645014    20.424351    7997.0338    6256.3815    7209.9258    8026.7995    187.01491    887.98962    204.08331    -3871.081 
20950000    131.87326   -4971.2679   -4716.9392   -4971.2679            0    7748.7463    19.651887    19.789791    20.368779    7921.5556     8252.347    7209.4685    7784.4234    -121.4518    713.94998     931.2077   -3821.7439 
20951000    120.47548   -4951.9254   -4719.5782   -4951.9254            0    8969.9671    19.683473    19.671189     20.60633    7978.7155    8385.3593    10603.102    7921.4404   -259.60298   -778.77605    108.99004   -3675.8205 
20952000     128.0015   -4966.7172   -4719.8555   -4966.7172            0    6870.8064    19.664806    19.922729    20.481255    8024.0765    6693.9749    6621.9942      7296.45    -295.1947   -408.20326    28.425544   -3915.8136 
20953000    128.68895   -4989.5935    -4741.406   -4989.5935            0    5523.5514     19.89908    19.760955    20.505965    8063.4546     5208.374    6347.0428    5015.2374   -196.55649   -23.401984   -410.99575   -4091.8518 
20954000    130.35677   -4987.1558   -4735.7518   -4987.1558            0    7584.7034    19.730867    19.922298    20.380537    8011.2674    8984.0954    6752.7514    7017.2633    -353.3297    568.56155     386.1764   -3849.5846 
20955000    129.12196   -4988.9528   -4739.9303   -4988.9528            0    7914.3654    19.720641    19.777561     20.49391    7993.1616    6962.8053    8464.0365    8316.2544    103.67386    643.20549    105.42951   -3817.3364 
20956000    128.97718   -4988.2765   -4739.5332   -4988.2765            0    7174.7579    19.835719    19.850635    20.390713    8028.8764    7958.2685    7045.5279    6520.4775     -297.111    110.15619   -1451.2174   -3899.4197 
20957000    134.38051   -4983.0891    -4723.925   -4983.0891            0    6877.8187    19.805272    19.838232    20.332137    7988.5289    7284.1375    5730.5202    7618.7985   -495.89887    352.87173    968.85371   -3922.6282 
20958000    134.10181   -4982.3634   -4723.7368   -4982.3634            0    5854.4612    19.827571    19.913742    20.378225    8046.1613    5998.5649    5673.5243    5891.2943   -409.39551      319.766   -687.35084    -4036.745 
20959000    134.09198   -4985.6338   -4727.0262   -4985.6338            0    6333.8115    19.837614     19.71846    20.512699    8023.8953    4960.0841    8609.3003    5432.0502    97.198176    115.65423   -250.98961   -3985.8417 
20960000    140.87514   -4974.8056    -4703.116   -4974.8056            0    6960.2755    19.651208    19.785452    20.554382    7991.7092    7259.7279    7133.6929    6487.4057    92.028506    581.14222    237.67213   -3891.8898 
20961000    127.22985   -4967.4161   -4722.0426   -4967.4161            0    7461.7242    19.694271    19.760775    20.591153    8013.5427    7528.4885    8141.4432    6715.2407   -114.42154    332.89744    10.488905   -3849.9962 
20962000    133.64998    -4979.486   -4721.7307    -4979.486            0    8252.3087    19.792649    19.723847    20.520342    8010.8788    8179.8144     8676.195    7900.9166   -241.22417    297.73326   -247.54327   -3757.6098 
20963000    141.88647    -4986.267    -4712.627    -4986.267            0    7211.7448    19.679402    19.778007    20.594526    8015.7884    7194.8243    6671.2519     7769.158   -306.14855   -355.41377    461.85797   -3869.5592 
20964000    134.04559   -4982.8244   -4724.3062   -4982.8244            0    6642.3832    19.808949     19.86876    20.442087    8045.5809    7445.5788    5873.4343    6608.1365    107.60969    341.00026   -371.41332   -3944.9119 
20965000    130.72317   -4995.7752   -4743.6645   -4995.7752            0    8149.6874    19.895881    19.686237     20.38607    7984.7145    7169.0867     8892.683    8387.2923    480.68484    618.12469    711.78368   -3794.6427 
20966000    130.11062   -4979.6923    -4728.763   -4979.6923            0     7821.232     19.76365    19.955575    20.236237    7981.0706    7507.1505    7232.0719    8724.4737   -78.254834    175.15742   -1157.5843    -3818.405 
20967000    125.67336   -4991.0375   -4748.6658   -4991.0375            0    6353.0806    19.909321    19.767365    20.462411    8053.0806    5145.5461    7746.5607    6167.1348   -238.95235   -610.72135    285.93042   -4002.5224 
20968000    136.70356   -4981.8775   -4718.2332   -4981.8775            0    7548.3852    19.707595     19.87972    20.491349     8028.131    6374.5909    8685.4714    7585.0933   -58.114285    719.59025    136.17775   -3834.4528 
20969000    134.35776   -4970.6564   -4711.5361   -4970.6564            0    8934.6267    19.635796    19.767616    20.472574    7946.4885     9241.551      8662.64     8899.689    195.53764     7.789791    1262.9559   -3676.0899 
20970000    129.34628   -4988.2733   -4738.8181   -4988.2733            0     7049.873    19.793984    19.840908    20.445914    8029.7366    6427.1852     7407.145    7315.2889   0.58089271    387.58311   -493.86314   -3913.2394 
20971000    130.08052   -4980.1451   -4729.2739   -4980.1451            0     7758.255    19.658839    19.825511    20.548902    8008.8632     9099.696    7127.4311    7047.6379   -58.796522    226.48427     26.29486   -3823.1015 
20972000    132.81952   -4984.4026   -4728.2489   -4984.4026            0    9140.6093    19.668906    19.841639    20.311691     7926.908    8236.6947     10392.98    8792.1534   -502.65558    698.00997    623.90604   -3671.5413 
20973000    131.06963   -4987.3413   -4734.5625   -4987.3413            0    4616.9928    19.789046    19.890599    20.463884    8054.9119     5435.425    3772.8096    4642.7438    -289.9917   -649.24555   -421.42481   -4192.1922 
20974000    131.96966    -4983.323   -4728.8084    -4983.323            0    6291.8897    19.745733    19.908557    20.400783    8019.7325    7562.8095     5331.609    5981.2507     200.7662   -261.67869   -834.34012   -3992.9117 
20975000    127.74917    -4981.371    -4734.996    -4981.371            0    6508.2876    19.907115    19.640227    20.487885    8010.3586    6931.3278    5981.5594    6611.9756    411.55298   -239.47736   -22.840517   -3974.6792 
20976000    133.90908   -4980.7949     -4722.54   -4980.7949            0     7693.314    19.678921    19.754379    20.503313     7970.558    7899.0803    6815.3321    8365.5298   -195.62879   -443.29986    1144.2855   -3828.2506 
20977000    143.97356   -4962.3813   -4684.7161   -4962.3813            0    7874.0503    19.748463    19.699719    20.444939     7953.882    5355.6352    9488.2879    8778.2278   -539.00848     306.6949    -1009.389   -3771.3325 
20978000    129.94777   -4960.9131   -4710.2979   -4960.9131            0    7075.1946    19.893143    19.733915    20.462538    8032.9705    6034.0296    7934.6786    7256.8755   -378.01629    1233.7885    402.09327   -3881.4203 
20979000    135.97237   -4981.8493   -4719.6152   -4981.8493            0    5920.5243    19.905107    19.751347     20.49639     8058.211    3814.3136     8137.382    5809.8773   -152.38235    683.23864   -644.52339   -4023.8307 
20980000    136.70801   -4968.1233   -4704.4704   -4968.1233            0    6725.4135    19.750098    19.736653    20.429599    7963.4746    7254.0975    5742.4861    7179.6571    582.94859    501.88981     809.4676   -3923.3869 
20981000    132.32815   -4968.6077   -4713.4017   -4968.6077            0    7509.0197    19.780764    19.820177    20.437736    8012.7829    8340.8431    7250.9109    6935.3051   -552.16901    97.202077   -491.82222    -3835.911 
20982000    133.22488   -4976.5743   -4719.6389   -4976.5743            0    6825.7223    19.878079    19.668159     20.48966    8010.7444    5757.6485    7305.3884    7414.1299   -158.56671   -182.85666    993.12961   -3922.2001 
20983000    133.56536   -4984.3113   -4726.7192   -4984.3113            0    7686.9597    19.774417    19.818397    20.400005    7994.7056    8222.0055    6807.1562    8031.7173    431.35658    1411.9695    -320.9014   -3830.4614 
20984000    143.27249   -4991.2552   -4714.9421   -4991.2552            0    7472.1033    19.714426    19.976773    20.336029    8008.9505    7056.7858    7308.4303    8051.0937   -303.31922   -217.77259    429.94864   -3842.1831 
20985000     128.5659    -4985.567   -4737.6169    -4985.567            0    7379.9653    19.792892    19.930968    20.278369    7999.6444    9360.9863    5273.3897    7505.5201    327.64478   -399.03306    932.87643   -3876.6214 
20986000    126.25895   -4970.9576   -4727.4566   -4970.9576            0    8761.4287    19.665738    19.779913    20.434906    7948.9042    9053.5641      9749.12     7481.602   -359.27489    36.027849   -1297.7539   -3711.7738 
20987000    131.22647    -4977.685   -4724.6037    -4977.685            0      7675.61    19.757832    19.804816    20.438115    7997.4389    8151.7205    7208.8209    7666.2887    6.3792713    95.663486   -617.00317   -3829.3632 
20988000    132.64804   -4972.7403   -4716.9174   -4972.7403            0    7154.6503    19.866369    19.756988    20.447116    8025.4853    6688.9871    7284.7824    7490.1813    67.264965    1172.9369     4.294648   -3879.5123 
20989000    131.13811   -4977.4042   -4724.4933   -4977.4042            0    7371.8697    19.858032    19.779512    20.332813    7986.3668    6944.5414    7438.5434    7732.5243   -66.008551   -196.59732   -525.71437   -3865.8698 
20990000    130.22409   -4967.5206   -4716.3725   -4967.5206            0    7965.1287    19.824162    19.766869    20.345133    7972.4764    7369.6166    8317.9825     8207.787   -304.56289    557.06707   -64.461142   -3790.2639 
20991000    125.97018   -4975.9885   -4733.0444   -4975.9885            0    6656.4169    19.850989    19.828785    20.322963    7999.5449    5606.0775    6924.9364    7438.2367   -501.87086     1006.247    539.89111   -3956.4725 
20992000    135.20888   -4982.3529   -4721.5912   -4982.3529            0    7683.1682    19.833337     19.79894    20.298724    7970.8836    8230.5578     6289.791    8529.1558   -254.51598    317.41719    340.78114   -3828.4447 
20993000    134.65738    -4973.367   -4713.6689    -4973.367            0     6428.746    19.675504    19.759053    20.582088    8001.6845    7073.6742    6143.7012    6068.8626     297.9846    332.49657     726.5304   -3963.4577 
20994000    135.01775   -4977.4426   -4717.0495   -4977.4426            0    7954.6439    19.635739    19.844071     20.66049    8050.4217    8608.7354    7513.6824    7741.5139    222.69995   -16.283847    318.78822   -3783.1175 
20995000    133.64716   -4964.8332   -4707.0834   -4964.8332            0    7078.9244    19.626555    19.761751    20.669805    8016.8892    7178.4712    8065.5831    5992.7189   -524.09768    258.18733    700.65597    -3879.429 
20996000    134.93603   -4977.4755     -4717.24   -4977.4755            0    7394.1577    19.801089     19.80875    20.492415    8037.8385    8051.5128    6830.6487    7300.3117   -518.45324    241.83184   -1150.3924     -3850.47 
20997000    138.65315   -4990.8501   -4723.4458   -4990.8501            0    6776.6425    19.759959    19.817709    20.406482    7991.1196    5829.2431    6959.7512    7540.9331   -828.77943   -298.17149   -781.29497   -3933.6804 
20998000    136.99329   -4974.6782   -4710.4751   -4974.6782            0    7150.8887    19.679441    19.802098    20.583571    8021.2988    7496.2168    6872.7674     7083.682   -423.63875    162.24298   -292.07424   -3873.9469 
20999000      124.427   -4974.4287   -4734.4607   -4974.4287            0    6983.4456    19.777226    19.842811    20.348162    7985.3465    6201.3579    7219.4172    7529.5618   -212.28346   -268.87641   -865.87247    -3921.182 
21000000    138.24763   -4965.1332    -4698.511   -4965.1332            0    8455.0469    19.728235    19.905238    20.335775    7985.7614    10447.543    5795.5394     9122.058   -275.88643    512.35677   -305.25383   -3713.8012 
Loop time of 353.36 on 64 procs for 250000 steps with 972 atoms

Performance: 122.255 ns/day, 0.196 hours/ns, 707.493 timesteps/s
99.1% CPU use with 64 MPI tasks x 1 OpenMP threads

MPI task timing breakdown:
Section |  min time  |  avg time  |  max time  |%varavg| %total
---------------------------------------------------------------
Pair    | 19.631     | 28.6       | 38.377     |  86.4 |  8.09
Bond    | 0.2583     | 0.2758     | 0.29816    |   1.2 |  0.08
Kspace  | 138.2      | 147.9      | 157.1      |  38.4 | 41.86
Neigh   | 0.98346    | 0.99823    | 1.0119     |   0.7 |  0.28
Comm    | 83.824     | 84.463     | 85.228     |   3.5 | 23.90
Output  | 0.59904    | 0.59978    | 0.60145    |   0.0 |  0.17
Modify  | 84.08      | 85.194     | 85.848     |   4.3 | 24.11
Other   |            | 5.331      |            |       |  1.51

Nlocal:        15.1875 ave          20 max          10 min
Histogram: 3 1 2 11 8 9 8 12 6 4
Nghost:        2317.45 ave        2339 max        2279 min
Histogram: 1 1 3 5 8 4 13 9 15 5
Neighs:        4916.86 ave        6579 max        2847 min
Histogram: 3 1 6 5 9 12 10 6 9 3

Total # of neighbors = 314679
Ave neighs/atom = 323.74383
Ave special neighs/atom = 2.0000000
Neighbor list builds = 2852
Dangerous builds = 0

unfix		3
unfix		2
unfix		1

write_data	data.final.${pid}
write_data	data.final.1
System init for write_data ...
PPPM initialization ...
  extracting TIP4P info from pair style
  using 12-bit tables for long-range coulomb (../kspace.cpp:340)
  G vector (1/distance) = 0.37236827
  grid = 24 24 24
  stencil order = 5
  estimated absolute RMS force accuracy = 0.0034849969
  estimated relative force accuracy = 1.0494965e-05
  using double precision FFTW3
  3d grid and FFT values/proc = 2197 216
Last active /omp style is kspace_style pppm/tip4p/omp
WARNING: Not all mixed pair coeffs generated from mixing. Use write_data with 'pair ij' option to store all pair coeffs. (../write_data.cpp:312)

write_restart   restart.lmp.${pid}
write_restart   restart.lmp.1
System init for write_restart ...
PPPM initialization ...
  extracting TIP4P info from pair style
  using 12-bit tables for long-range coulomb (../kspace.cpp:340)
  G vector (1/distance) = 0.37236827
  grid = 24 24 24
  stencil order = 5
  estimated absolute RMS force accuracy = 0.0034849969
  estimated relative force accuracy = 1.0494965e-05
  using double precision FFTW3
  3d grid and FFT values/proc = 2197 216
Last active /omp style is kspace_style pppm/tip4p/omp
Total wall time: 0:05:53
