#include		in.partitions
include		in.temp
variable        temperature equal 135.10
variable	tempDamp equal 100.0
include		in.pressure
variable        pressure equal 2049.2
variable        pressureDamp equal 1000.0 # This is 1 ps
include		in.seed
variable        seed equal 745823

units		real
atom_style	full
box tilt large
read_restart	restart.lmp.${pid}
read_restart	restart.lmp.0
Reading restart file ...
  restart file = 30 Jul 2021, LAMMPS = 30 Jul 2021
  restoring atom style full from restart
  triclinic box = (-10.708543 -9.1667019 0.046601955) to (12.688543 12.156700 21.813397) with tilt (-9.3459001 2.0161909 2.9933449)
  4 by 2 by 4 MPI processor grid
  restoring pair style lj/cut/tip4p/long/omp from restart
  restoring bond style harmonic/omp from restart
  restoring angle style harmonic/omp from restart
  1296 atoms
  864 bonds
  432 angles
Finding 1-2 1-3 1-4 neighbors ...
  special bond factors lj:    0        0        0       
  special bond factors coul:  0        0        0       
     2 = max # of 1-2 neighbors
     1 = max # of 1-3 neighbors
     1 = max # of 1-4 neighbors
     2 = max # of special neighbors
  special bonds CPU = 0.002 seconds
  read_restart CPU = 0.010 seconds
include 	in.setup
variable	out_freq equal 1000
variable	out_freq2 equal 10000
variable	out_freq3 equal 1000

timestep	2.0

neigh_modify    delay 7 every 1

include		in.tip4p
# This is TIP4P/Ice

# create groups ###
group ox type 2
432 atoms in group ox
group hy type 1
864 atoms in group hy

# set charges - beside manually ###
set group ox charge -1.1794
Setting atom values ...
  432 settings made for charge
set group hy charge 0.5897
Setting atom values ...
  864 settings made for charge

# ### TIP3P Potential Parameters ###
pair_style lj/cut/tip4p/long/omp 2 1 1 1 0.1577 8.5
pair_coeff 1 1*2 0.000 0.000
pair_coeff 2 2 0.21084 3.1668
bond_style  harmonic
bond_coeff  1 450 0.9572
angle_style harmonic
angle_coeff 1 55 104.52
kspace_style pppm/tip4p/omp 1.0e-5
pair_modify tail yes

thermo          ${out_freq}
thermo          1000
thermo_style    custom step temp pe etotal epair emol press lx ly lz vol pxx pyy pzz pxy pxz pyz enthalpy

restart 	${out_freq3} restart.lmp.${pid} restart2.lmp.${pid}
restart 	1000 restart.lmp.${pid} restart2.lmp.${pid}
restart 	1000 restart.lmp.0 restart2.lmp.${pid}
restart 	1000 restart.lmp.0 restart2.lmp.0


include         in.dump
dump            myDump all atom ${out_freq2} dump.water.${pid}
dump            myDump all atom 10000 dump.water.${pid}
dump            myDump all atom 10000 dump.water.0
dump            myDump2 all dcd ${out_freq2} dump.dcd
dump            myDump2 all dcd 10000 dump.dcd
dump_modify     myDump append yes
dump_modify     myDump2 append yes


variable natoms 	equal  "count(all)"                        # NUMBER ATOMS
variable H      	equal  "enthalpy/v_natoms"                 # ENTHALPY-per-atom
variable Vol      	equal  "vol/v_natoms"                 # volume-per-atom
fix AVG all 		ave/time ${out_freq} 1 ${out_freq} v_Vol v_H file vol_enthalpy.dat
fix AVG all 		ave/time 1000 1 ${out_freq} v_Vol v_H file vol_enthalpy.dat
fix AVG all 		ave/time 1000 1 1000 v_Vol v_H file vol_enthalpy.dat


timer           timeout 10:00:00 every 1000
New timer settings: style=normal  mode=nosync  timeout=10:00:00

fix 		1 all shake 1e-6 200 0 b 1 a 1
       0 = # of size 2 clusters
       0 = # of size 3 clusters
       0 = # of size 4 clusters
     432 = # of frozen angles
  find clusters CPU = 0.006 seconds
fix             2 all nph tri ${pressure} ${pressure} ${pressureDamp}
fix             2 all nph tri 2049.2 ${pressure} ${pressureDamp}
fix             2 all nph tri 2049.2 2049.2 ${pressureDamp}
fix             2 all nph tri 2049.2 2049.2 1000
fix             3 all temp/csvr ${temperature} ${temperature} ${tempDamp} ${seed}
fix             3 all temp/csvr 135.1 ${temperature} ${tempDamp} ${seed}
fix             3 all temp/csvr 135.1 135.1 ${tempDamp} ${seed}
fix             3 all temp/csvr 135.1 135.1 100 ${seed}
fix             3 all temp/csvr 135.1 135.1 100 745823


run             250000
PPPM initialization ...
  extracting TIP4P info from pair style
  using 12-bit tables for long-range coulomb (../kspace.cpp:340)
  G vector (1/distance) = 0.36529295
  grid = 30 40 32
  stencil order = 5
  estimated absolute RMS force accuracy = 0.0050272733
  estimated relative force accuracy = 1.5139484e-05
  using double precision FFTW3
  3d grid and FFT values/proc = 7888 1280
Last active /omp style is kspace_style pppm/tip4p/omp
Neighbor list info ...
  update every 1 steps, delay 7 steps, check yes
  max neighbors/atom: 2000, page size: 100000
  master list distance cutoff = 10.8154
  ghost atom cutoff = 10.8154
  binsize = 5.4077, bins = 7 5 5
  1 neighbor lists, perpetual/occasional/extra = 1 0 0
  (1) pair lj/cut/tip4p/long/omp, perpetual
      attributes: half, newton on, omp
      pair build: half/bin/newton/tri/omp
      stencil: half/bin/3d/tri
      bin: standard
Per MPI rank memory allocation (min/avg/max) = 10.65 | 10.66 | 10.67 Mbytes
Step Temp PotEng TotEng E_pair E_mol Press Lx Ly Lz Volume Pxx Pyy Pzz Pxy Pxz Pyz Enthalpy 
21000000     145.5337   -6644.5474   -6270.1708   -6644.5474            0     2544.956    23.397086    21.323402    21.766795    10859.573    2829.4508    3405.3979    1400.0194    749.15009   -724.60075   -479.69283   -5867.1115 
21001000    138.37428   -6669.1284    -6313.169   -6669.1284            0    1475.5879    23.471624    21.299247    21.692324    10844.598   -553.45075    2532.4557    2447.7589    224.14753    638.12793     555.2638    -6079.794 
21002000    132.03346   -6648.4905   -6308.8424   -6648.4905            0    2520.4673    23.404419    21.257644    21.788782    10840.416    1910.8349    3929.1347    1721.4324    527.45246   -298.64048   -167.41454   -5910.3657 
21003000    132.82935   -6655.0164    -6313.321   -6655.0164            0    1919.8167    23.330597    21.310527     21.81278    10845.038    2584.1989    2398.8518     776.3993   -196.69241    36.623548     126.5522   -6009.6756 
21004000    132.63705   -6668.4537   -6327.2529   -6668.4537            0    2071.0482     23.39158    21.470447    21.551532    10823.776    857.99689    2122.6898    3232.4579    176.24256    195.42669    951.68529   -6000.3304 
21005000    135.34057   -6663.0781   -6314.9227   -6663.0781            0    1445.3551    23.308044    21.390739    21.801064    10869.494    2173.2593     1360.562    802.24392   -307.66576   -562.21985   -171.32739   -6085.8044 
21006000    139.09855   -6655.0841   -6297.2615   -6655.0841            0    2497.7343    23.270022    21.381003    21.779181    10835.936    2714.7828    2226.1045    2552.3157    203.12827    414.63073   -109.40264   -5902.5421 
21007000    132.07784   -6657.2139   -6317.4516   -6657.2139            0    2212.1707    23.324253    21.476621    21.634211    10837.142    2066.0044    1392.0823    3178.4253    -907.1414    805.70661    839.72872   -5967.8212 
21008000    136.08723   -6654.1765   -6304.1004   -6654.1765            0    1877.5861    23.297928    21.544631    21.622066    10853.094    2306.4038    1213.9762    2112.3782   -3.7528284   -127.64044   -1696.1477   -6006.9138 
21009000    138.42839   -6643.9164   -6287.8178   -6643.9164            0    2036.8065    23.221621    21.495548      21.7393    10851.421    2328.6187    557.56647    3224.2345    620.46174    301.46304    578.10255   -5965.4792 
21010000    137.31639    -6657.063    -6303.825    -6657.063            0    2135.7204    23.126496    21.494817    21.827616    10850.503    3682.1812    1174.9329    1550.0473    321.27422   -518.74118    247.93778   -5965.8612 
21011000    139.92668   -6670.5592   -6310.6064   -6670.5592            0    2085.5777    23.254326    21.533727    21.644623    10838.595    2523.0896    819.63359      2914.01   -659.16304   -117.28641    192.38999   -5980.9395 
21012000    138.97133   -6647.9124   -6290.4171   -6647.9124            0    1786.0149    23.247057    21.428025    21.767891    10843.425    1745.6602    2025.4784     1586.906    774.48744      674.098    1193.3438   -6007.9763 
21013000    136.12538   -6646.4087   -6296.2344   -6646.4087            0    1745.2754    23.212378    21.529843    21.752811    10871.159    2571.6435    1309.2598     1354.923   -454.00288    9.6334981    -15.97363   -6019.5303 
21014000    131.17394   -6665.0249   -6327.5879   -6665.0249            0    1669.8602    23.303271    21.432344    21.735369    10855.594    1685.1514    2324.3534    1000.0757     328.7449    595.89364   -854.02762   -6063.2195 
21015000    142.68573    -6677.391   -6310.3407    -6677.391            0    1464.1742    23.301596    21.379377    21.805709    10863.029    1246.1794    1892.3757    1253.9674    1047.3564    488.45566    1168.0586   -6078.3772 
21016000    139.83557   -6673.8536   -6314.1351   -6673.8536            0    1628.3317    23.392446    21.362655    21.721975    10855.009    1896.5754    1503.1742    1485.2453    530.37475    86.927464   -970.24638   -6056.3553 
21017000     141.5627    -6674.403   -6310.2416    -6674.403            0    1164.3009    23.385242    21.263432    21.850414    10865.129    390.65609    2580.6703     521.5765    263.76949   -125.61874    172.74302   -6125.7502 
21018000    129.61417   -6664.3061   -6330.8816   -6664.3061            0     2664.633    23.386885    21.281849    21.744091    10822.385    2683.9359    3239.1626    2070.8006   -368.35323   -150.58143   -1073.3144   -5910.3135 
21019000     129.2248   -6647.2036   -6314.7806   -6647.2036            0    2164.2081    23.366382    21.367456    21.696745    10832.754    2523.2055    1836.0936    2133.3252   -801.77614   -456.00754   -285.92473   -5972.8691 
21020000    129.60795   -6651.8015    -6318.393   -6651.8015            0    1882.4399     23.32261    21.361914    21.781162    10851.715    1853.5819      2114.42    1679.3178   -950.33686     409.3916     632.5747   -6020.4759 
21021000    134.27148   -6674.5704   -6329.1652   -6674.5704            0    2449.9697    23.250436    21.434055    21.729486    10828.914    3460.3641    1975.7893    1913.7556   -493.67767    495.11633   -553.85827   -5942.2449 
21022000    132.86537   -6650.8739   -6309.0858   -6650.8739            0    2313.6667    23.281073    21.469936    21.636107     10814.66     3026.911     1851.404    2062.6851    191.67093   -965.98093    339.94634   -5944.1726 
21023000    134.23024    -6665.306   -6320.0069    -6665.306            0    1304.5915    23.180484    21.473287    21.811394    10856.865    1225.5186    898.49774    1789.7583  -0.79705931     152.3665   -232.18294   -6113.4428 
21024000    148.06259   -6651.5798   -6270.6979   -6651.5798            0    2506.3047    23.101339    21.597189    21.733741    10843.484    3793.9311    1284.7792    2440.2038    403.93826    437.37091   -925.80701   -5874.3481 
21025000    138.58816   -6646.9688   -6290.4592   -6646.9688            0    2066.4995    23.239287    21.562286    21.617518    10832.369    1711.9791    2114.4553     2373.064    48.977831    583.40381   -483.80662   -5963.9957 
21026000    137.21549   -6645.5238   -6292.5453   -6645.5238            0    2279.2573    23.176175    21.509886    21.765873    10850.655    3226.6735    2169.7853    1441.3133    104.07475   -157.83882   -883.06772   -5931.8627 
21027000    135.02017   -6647.8237   -6300.4926   -6647.8237            0      2262.53    23.210889    21.507661    21.719088    10842.428    2617.4405     1625.268    2544.8816   -225.99952   -543.09048   -18.585325   -5942.7285 
21028000    134.17496   -6673.0693   -6327.9124   -6673.0693            0     2654.545     23.29745    21.445433    21.578819    10781.294    3016.6634     1502.918    3444.0537   -559.46816    935.50623    524.38964   -5910.5273 
21029000    132.99734    -6667.186   -6325.0584    -6667.186            0    1488.8015    23.288487    21.479687     21.70775    10858.855    2651.4378    225.50013    1589.4665   -113.84271   -315.95336   -244.90855    -6089.284 
21030000    137.83867     -6641.21   -6286.6284     -6641.21            0    2949.6992    23.257931    21.328055    21.834729     10831.04    2948.8453    3872.6886    2027.5638    756.72306   -79.045075    -150.3927   -5820.6951 
21031000    130.75477   -6630.5934   -6294.2347   -6630.5934            0    2383.2354    23.458213    21.306877    21.667973    10830.114    1764.4785    2438.7644    2946.4633    -162.7937   -394.75502   -3.2796234    -5917.812 
21032000    138.10096   -6655.8768   -6300.6205   -6655.8768            0    1095.7898    23.485423    21.388696    21.664737    10882.686    -300.0718    1772.3093    1815.1318    68.562467    206.28194   -259.11988   -6126.7046 
21033000    135.97459   -6658.2459   -6308.4596   -6658.2459            0    1909.8148    23.273007    21.355384    21.852344    10860.702    2716.7171    1176.8508    1835.8764   -499.28438    33.863365    692.17076   -6005.9598 
21034000    128.70237   -6650.9506   -6319.8716   -6650.9506            0    2282.9786    23.359505    21.390263    21.678111    10831.814    2328.1652    1826.5168    2694.2538    58.255141    -619.0076   -259.38767   -5959.2274 
21035000    133.54582   -6671.1957   -6327.6572   -6671.1957            0    1609.4305    23.376786    21.411909    21.649495    10836.473    1942.3786    1069.3158    1816.5969   -114.45729   -175.38649   -229.04171   -6073.3046 
21036000    132.03857   -6662.6213   -6322.9602   -6662.6213            0    1772.1467    23.312637    21.307899    21.854432    10856.043    2158.7488    2349.2426     808.4486    -415.6523    56.484562   -347.52656   -6042.3864 
21037000    136.74917   -6657.9116   -6306.1327   -6657.9116            0    2846.7519     23.28744    21.327181     21.75701    10805.738    2370.9652    3644.6788    2524.6118    750.68106   -1037.3565   -392.87892   -5857.5114 
21038000    137.64564   -6666.9984   -6312.9133   -6666.9984            0    2336.6743    23.318724    21.383107    21.667314    10803.903    1640.2253     2540.045    2829.7525   -168.17129    748.15425    255.82093    -5944.738 
21039000    135.43015   -6658.1227   -6309.7369   -6658.1227            0    2115.2431    23.243783    21.482252     21.65023    10810.584    1832.8337    1763.7299    2749.1657    753.99101    2.3349744   -135.21135    -5976.245 
21040000    135.06345   -6669.9301   -6322.4876   -6669.9301            0    2322.5986    23.094707    21.472456    21.822146    10821.604    3233.5171    1561.7813    2172.4973   -16.478868    -1093.263    506.78594   -5955.9305 
21041000    129.58301    -6659.654   -6326.3096    -6659.654            0    2325.5906    23.269809    21.433521    21.665317    10805.662     2790.037    2541.3764    1645.3583   -809.74269    410.54466   -29.142288   -5959.8209 
21042000    134.33367    -6663.861   -6318.2958    -6663.861            0    1540.1637    23.297884    21.519197    21.620667    10839.559    1454.9379    863.45274    2302.1005    408.97079   -809.96282    1.8391564   -6074.8208 
21043000    135.61511   -6651.2948   -6302.4332   -6651.2948            0    2037.9253    23.074951    21.547598    21.822299     10850.26    2631.8504    1140.2641    2341.6614   -167.09519    466.82364    -67.40238   -5979.9521 
21044000    133.62059   -6648.7357   -6305.0049   -6648.7357            0    2699.4424    23.129427     21.53708    21.719696    10819.456    2859.8515    2745.0861    2493.3897    141.95786    119.58992    79.420279   -5879.0581 
21045000    124.33827   -6667.3554   -6347.5028   -6667.3554            0    2392.5949    23.187412    21.510226    21.680303    10813.408    3319.1958     1492.367    2366.2219    147.34883   -31.804308    -305.5292   -5970.1847 
21046000     136.9316   -6660.9317   -6308.6835   -6660.9317            0    1960.9006    23.115452    21.547103    21.801635    10858.763    2419.8039    1605.0011    1857.8969    973.06744    501.60242    832.29802   -5998.1476 
21047000    133.37312   -6668.0546   -6324.9604   -6668.0546            0      1506.64    23.296309    21.480916    21.710893    10864.697    1013.5638    1425.2897    2081.0665    56.974228    1179.7523    954.17186   -6086.2326 
21048000    136.75581   -6654.1597   -6302.3637   -6654.1597            0    2658.1151    23.294614    21.530453    21.597607    10832.142     2453.528    2112.6455    3408.1718   -257.07616     647.5063   -257.11117   -5882.4462 
21049000    139.78929   -6660.6307   -6301.0312   -6660.6307            0    1797.1058    23.259648    21.426002    21.753772    10841.238    2005.6574    1392.6886    1992.9715    1204.9234   -386.45978    559.54884   -6016.8938 
21050000    133.87625    -6654.593   -6310.2045    -6654.593            0    2657.5475    23.280595    21.376263    21.691405    10794.774    2793.9727    2393.7631    2784.9067   -511.19395    109.25207   -678.82579    -5891.825 
21051000    139.57094   -6654.9392   -6295.9015   -6654.9392            0    3530.6248    23.217021     21.39696    21.703973    10781.962    4305.5799    3828.1848    2458.1096     203.6293   -1189.0144   -348.37157   -5740.7324 
21052000    134.51906   -6670.2848   -6324.2427   -6670.2848            0    1682.2928    23.294641    21.394559    21.742559    10836.026    882.42437    2138.4343    2026.0198    173.18322    1369.9682   -28.620392   -6058.3861 
21053000    129.98002   -6654.6763   -6320.3106   -6654.6763            0    2290.7168    23.355542    21.436126    21.638178    10833.205    1429.4139    1607.0826    3835.6539    199.48536    86.687126    749.74466   -5958.3976 
21054000    134.00018   -6645.9252   -6301.2179   -6645.9252            0    2541.7251    23.404036    21.396682    21.619687    10826.463    1673.1441    2972.5379    2979.4934   -43.563927    574.89172    113.92064   -5899.8976 
21055000    136.72067   -6655.9803   -6304.2747   -6655.9803            0    2668.5457    23.222431    21.344075    21.849701    10830.052    3304.6358    2954.3355    1746.6659     -673.835    548.30565    473.88149   -5882.7907 
21056000    137.74501   -6647.0932   -6292.7526   -6647.0932            0    2098.7554     23.29782    21.398881    21.741602    10839.217     1874.667    2532.6941    1888.9051   -77.713387    -431.7824   -133.71586   -5960.9837 
21057000    133.01053   -6650.5933   -6308.4318   -6650.5933            0    2733.8699    23.360929    21.375647    21.600496    10786.315    2256.2023    2831.4857    3113.9218    444.79898    198.59702    249.45733    -5878.374 
21058000    139.82882    -6677.355   -6317.6539    -6677.355            0    2034.3226    23.378014    21.379058    21.688076    10839.698    2356.1901    1517.9179    2228.8599    671.28108   -679.36252    104.21753   -5996.0562 
21059000    135.79991   -6660.8857   -6311.5487   -6660.8857            0    1608.1811     23.26764    21.377551    21.818216    10852.494    2268.6015    1305.2522    1250.6895   -483.13677   -209.82443   -242.16234   -6057.0179 
21060000     130.5205   -6667.5445   -6331.7884   -6667.5445            0    2044.4845    23.327752    21.400248    21.683883    10825.021     1542.157    2422.6296    2168.6668   -13.706014    -83.21878    316.21041   -6009.0219 
21061000     132.3352   -6653.4889   -6313.0646   -6653.4889            0    1665.1812    23.388644    21.509066    21.552559    10842.401     1191.042    885.25343    2919.2482     485.4921    863.34027    248.82885   -6049.7574 
21062000    141.82471   -6667.3455   -6302.5101   -6667.3455            0    902.31774    23.231834    21.433376    21.887244    10898.461    1404.8983    1242.7867    59.268223   -874.81434    356.40716   -741.93106   -6159.0931 
21063000    139.24548   -6648.3088   -6290.1083   -6648.3088            0    1494.7624    23.335241    21.452212    21.730913    10878.333    361.85617    2347.1207    1775.3102    965.19804   -388.62889    381.92827   -6052.9653 
21064000    136.11385   -6668.7743   -6318.6297   -6668.7743            0    2111.8936    23.374775    21.515486    21.526434    10826.067    1808.8933    1049.6691    3477.1185   -165.04581    964.96658   -120.27985    -5985.189 
21065000    128.44362   -6665.1082   -6334.6948   -6665.1082            0    2228.4004    23.145828    21.394299    21.914356    10851.743    2484.7143    2806.1892    1394.2979     203.9027   -654.65791   -848.90108   -5982.0247 
21066000    135.45577   -6644.0594   -6295.6077   -6644.0594            0    1990.0455    23.291024    21.424646    21.729181    10842.904    1366.5064    3064.4225    1539.2075    1250.1859    -204.5978   -381.60323   -5980.9165 
21067000    134.95309   -6680.1697   -6333.0111   -6680.1697            0    1875.2736     23.35757    21.403179    21.664199    10830.502    1355.6329    2501.6333    1768.5545    613.24589   -67.346222   -439.36839   -6036.8083 
21068000    137.29402   -6682.9941   -6329.8136   -6682.9941            0     2623.633    23.216237    21.376165    21.798254    10817.909    1956.4733    3359.9366     2554.489    82.197218    137.86435    400.18706    -5915.888 
21069000    130.63681   -6677.6018   -6341.5466   -6677.6018            0    1612.6938    23.302109    21.368896    21.791361    10850.798    1949.6908    1086.9605    1801.4302    615.07298   -163.98482    1215.3158   -6086.3414 
21070000    137.79328   -6672.6546   -6318.1898   -6672.6546            0    1492.2257    23.338718    21.438712    21.673142    10844.201    1933.2435    1095.1549    1448.2788   -1031.0819   -257.73314   -593.01997    -6082.192 
21071000     138.7582   -6665.3732   -6308.4262   -6665.3732            0    2806.3025    23.235922    21.387749    21.742584    10805.282    3576.9693    2944.1131    1897.8252   -277.57311    372.19399     130.5972   -5866.1979 
21072000     142.2775   -6646.6454   -6280.6452   -6646.6454            0    2573.1233    23.253417    21.450403     21.68622    10816.982    2910.8867    2488.2498    2320.2334    427.14944   -615.70217   -509.55521   -5874.7232 
21073000    132.25452   -6666.5952   -6326.3785   -6666.5952            0    2739.9806    23.247143    21.472544    21.627192     10795.76    3844.9201    1258.5761    3116.4457   -609.14458   -817.77161   -384.90152    -5894.982 
21074000    139.30621   -6673.8955   -6315.5388   -6673.8955            0    2206.5494    23.239385    21.378804    21.816177    10838.937    2450.5905    2479.7611    1689.2967    337.97544     542.6733   -776.81502    -5966.739 
21075000     135.4007   -6664.7985   -6316.4885   -6664.7985            0    967.81541     23.28634    21.507754    21.749261    10892.832    645.45735    966.86018    1291.1287    655.63486   -656.71429    138.46381   -6162.7406 
21076000    133.50175   -6658.8965   -6315.4714   -6658.8965            0    1540.6579    23.349845    21.478544    21.676597    10871.262    1465.6842     820.0808    2336.2086   -87.618372    1240.3582   -58.869605    -6071.206 
21077000    133.12821   -6670.2404   -6327.7762   -6670.2404            0    1884.3202    23.233129    21.430679    21.813539    10860.999    2722.4154    1910.8068    1019.7382   -1288.7134    603.32352    429.94743   -6029.3064 
21078000    137.50457   -6644.9506   -6291.2285   -6644.9506            0    1507.9664    23.347986    21.506263    21.656663    10874.415    663.96025    1957.7298    1902.2092    614.48416    286.93842   -648.76459   -6052.0768 
21079000    131.95667    -6667.814   -6328.3635    -6667.814            0    2430.8576    23.280865    21.445139    21.645694    10806.859    2096.8152    2086.0429    3109.7146    314.76132    92.110727     1186.746   -5945.2434 
21080000    138.86134   -6654.2884    -6297.076   -6654.2884            0    1736.4796    23.255743    21.427554    21.803125    10864.795    2391.2648    1889.3897    928.78441   -19.069315   -279.36438   -1092.8992   -6021.9275 
21081000    131.81206   -6662.4254   -6323.3469   -6662.4254            0    1464.2277    23.399131    21.377524    21.700932    10855.143    1484.8081    334.98447    2572.8905   -488.89944    -640.1404    552.31719   -6091.5434 
21082000    130.67715   -6657.4531   -6321.2941   -6657.4531            0    2711.3222    23.389799    21.268063    21.713328    10801.419    3130.7074    2963.3205    2039.9386   -455.99031    592.44829    307.20036    -5894.186 
21083000    137.20941   -6671.2064   -6318.2436   -6671.2064            0    1851.6911    23.375836     21.34135    21.741322    10846.134    1904.6775     2223.305    1427.0907   -412.31591   -761.89205   -1014.6606   -6025.3436 
21084000    142.14761   -6650.9606   -6285.2946   -6650.9606            0    2047.9958     23.39696    21.256699    21.782336    10833.274    1042.3349    3293.3916    1808.2608    636.33957    340.27595   -206.84549   -5961.7273 
21085000     129.9672   -6655.6587    -6321.326   -6655.6587            0    1823.8975    23.346118    21.432676    21.711541    10863.799    1666.8512    1491.3107    2313.5306   -995.52041   -903.34633    221.33623   -6032.3525 
21086000    133.56025   -6670.0969   -6326.5213   -6670.0969            0    1999.4212    23.257304    21.417058    21.791985    10854.654    1852.6837    2339.6947    1805.8851    825.94873    321.89341    271.70561   -6010.0049 
21087000    130.29803   -6665.6561   -6330.4724   -6665.6561            0    2030.6354    23.193717    21.418597    21.806602    10833.015    2902.5704    1324.9838     1864.352   -551.63893    -314.0702    268.53783   -6009.6555 
21088000    139.74341   -6665.5907   -6306.1093   -6665.5907            0    2718.8734    23.336202    21.481264    21.583222    10819.477    2188.6717    1998.5646    3969.3838   -672.39792   -251.88975   -839.00093   -5877.0956 
21089000    131.20559   -6681.1948   -6343.6764   -6681.1948            0    1827.0624    23.279811    21.394277    21.733632    10824.538    1555.7242    1691.7994    2233.6637    -810.2777    738.41731    425.98002   -6055.2476 
21090000    134.27577   -6668.4876   -6323.0714   -6668.4876            0    1978.7557    23.255657    21.433002     21.77813     10855.06    1949.2568    1792.3302    2194.6799     261.7442    25.078311    118.93789   -6009.8147 
21091000    134.68045   -6678.0892   -6331.6319   -6678.0892            0    2094.8051     23.31035    21.404721    21.691858    10823.186    1751.0567    2238.2997    2295.0588    66.266818    283.44533   -541.81187   -6000.9773 
21092000    135.79424   -6661.8223   -6312.4999   -6661.8223            0    1702.5224    23.322154    21.391961    21.744127    10848.288    1324.9435     2461.726    1320.8976    702.85129    309.81884    88.889992   -6043.1419 
21093000    129.54055    -6648.922   -6315.6868    -6648.922            0     1705.386    23.189336    21.504132    21.839169    10890.463    2103.3872    1184.6848    1828.0862   -1127.9623    47.697815   -322.26584   -6044.8268 
21094000     139.0203   -6667.2585   -6309.6372   -6667.2585            0    2024.8241    23.231066    21.498956    21.729827    10852.824    1880.1953    2319.6223    1874.6546     926.2566    31.495241    403.90769   -5989.1535 
21095000    126.92514   -6663.9557   -6337.4485   -6663.9557            0    1977.9854    23.284623    21.541272     21.60738    10837.838    2093.2602    1049.4591    2791.2368    322.81386   -384.66756     191.4716   -6024.8106 
21096000    135.70098   -6647.3052   -6298.2227   -6647.3052            0    2133.3643    23.130193    21.476312    21.844809    10851.436    2550.4746    2580.1787    1269.4397   0.43635794    -354.9678   -959.54168   -5960.6027 
21097000    136.92249   -6671.9847   -6319.7599   -6671.9847            0    1842.3817    23.259534    21.445202    21.770237    10859.112      1361.22    1701.9249    2464.0003    854.34421   -280.41558    14.212726   -6027.9837 
21098000    129.40841   -6668.2412   -6335.3459   -6668.2412            0    1710.0148    23.354063     21.41412    21.648372    10826.496    1106.1265    2328.5136    1695.4042   -170.06587     333.1083   -20.154399    -6065.346 
21099000    134.48925    -6656.227   -6310.2616    -6656.227            0    1602.5549    23.317851    21.337082    21.855513    10873.881    1887.5408    2198.6038    721.52009    35.382548    14.676271   -301.32964   -6056.1214 
21100000    129.41232   -6656.2881   -6323.3828   -6656.2881            0    2639.1979    23.386633    21.286579    21.717432    10811.403    2219.1481    2380.7987    3317.6469   -535.16406    390.85909     755.3009    -5907.252 
21101000    128.67318   -6661.2843   -6330.2804   -6661.2843            0     2889.587    23.379591    21.282025    21.693805    10794.079    2881.1551    3325.7907    2461.8152   -53.676109    84.418697    43.766408   -5875.3999 
21102000    135.10943    -6661.766   -6314.2052    -6661.766            0    1928.6043    23.363878    21.336797    21.729335    10832.298    1076.4165    2112.5849    2596.8114    -229.6488     146.8726     564.0162   -6009.5283 
21103000    136.61576   -6644.9776   -6293.5419   -6644.9776            0    2953.8918    23.490297    21.193374    21.687013    10796.633    2221.5644    3525.6094    3114.5017    83.248466      464.749   -185.75702   -5828.4285 
21104000    135.76737   -6657.3269   -6308.0736   -6657.3269            0    2156.8258    23.383706    21.339501    21.734208    10845.296     2341.053    1909.3185    2220.1059   -37.896831     98.93523    251.29503   -5966.9338 
21105000    135.73477   -6656.6797   -6307.5103   -6656.6797            0    1958.3301    23.407085    21.309794    21.745304    10846.561    1679.4963    2192.8218     2002.672   -371.83077    1045.1022   -643.68878   -5997.7299 
21106000    130.11114   -6659.7662   -6325.0632   -6659.7662            0    1936.6318     23.42583     21.33867    21.683514    10839.069    1881.9228    1983.4123    1944.5601   -534.70233   -216.88732    637.37492   -6018.9268 
21107000    137.70056   -6672.7452   -6318.5189   -6672.7452            0     1807.426    23.335512    21.334448    21.773097    10839.742    1448.0204    2413.2498    1561.0078    240.12217    56.105436    -469.8321   -6032.7893 
21108000    136.29526   -6671.3893    -6320.778   -6671.3893            0    2387.9152    23.212796    21.426042     21.78634    10835.618    3035.0303    1494.2617    2634.4536   -842.20804   -758.07513    695.71925   -5943.4244 
21109000    133.93545   -6668.0185   -6323.4777   -6668.0185            0    3056.4087    23.288686    21.458721    21.567126    10778.072    3613.0233     2608.785    2947.4179   -242.23011   -153.20986    -925.1305   -5843.0496 
21110000    129.44561    -6654.228    -6321.237    -6654.228            0    3101.3003    23.153445    21.433206    21.764324    10800.601    3100.3619     3124.431    3079.1081    -1229.902    737.77822    534.95012   -5832.7336 
21111000    131.88494   -6650.0467   -6310.7808   -6650.0467            0    1810.0846    23.252471     21.44104    21.756412    10846.815    1869.0117    1982.1801     1579.062   -339.68368   -809.60895   -686.00128   -6024.4441 
21112000    136.67922   -6663.1679    -6311.569   -6663.1679            0    2648.1012    23.246248    21.525897    21.545508    10781.293    2329.3059    1786.6099    3828.3877   -69.385759    1320.5848    772.42895   -5895.1971 
21113000     133.3776    -6650.031   -6306.9253    -6650.031            0     2686.725    23.183366    21.492994    21.708183    10816.753    2642.0797    2789.2904    2628.8049    396.25047   -866.44329     505.4778   -5883.0911 
21114000    133.40659   -6648.2003     -6305.02   -6648.2003            0    1799.0306    23.108072    21.534557    21.837597    10866.871    2328.3446    1176.0164    1892.7309    348.67282    416.35167    113.54281   -6019.9057 
21115000    139.17894   -6663.5354   -6305.5061   -6663.5354            0     2034.802       23.296     21.49688    21.612745    10823.475     1530.482    1867.3744    2706.5496   -5.5291394    269.71908    817.40731   -5984.3141 
21116000     126.1086   -6661.9632   -6337.5565   -6661.9632            0    2575.1249    23.264413    21.437105    21.666769    10805.687    3446.7515    2055.9931    2222.6302    32.157351    44.804147    123.51304   -5931.7429 
21117000     130.7057   -6687.4797   -6351.2473   -6687.4797            0    1916.5564    23.228769    21.408185    21.817063    10849.315     2466.557    2176.6049    1106.5074   -936.11266    371.01944   -443.40349    -6047.998 
21118000    129.94178   -6660.3894    -6326.122   -6660.3894            0    2088.5558    23.388088    21.399435    21.647465     10834.38     1213.123    2104.5649    2947.9795    228.78518   -321.57498   -191.88787   -5996.1128 
21119000    136.70532    -6671.765   -6320.0989    -6671.765            0    2416.4713    23.307476    21.377173    21.713548    10818.731    2486.3186    2974.2956    1788.7999     238.8792    1348.7756   -491.47319   -5938.8278 
21120000    136.12116   -6670.2193   -6320.0559   -6670.2193            0    770.17431    23.307472    21.382535    21.843951    10886.432    668.95394    991.45239     650.1166   -331.02893   -235.79705   -222.08849   -6197.7773 
21121000    130.58962   -6657.1818    -6321.248   -6657.1818            0    1278.7472    23.482513    21.392152    21.622003    10861.629    515.85737    1401.3553    1919.0288    703.60704   -653.82176   -3.0203256   -6118.6871 
21122000    138.00699   -6650.8359   -6295.8213   -6650.8359            0     2158.292     23.32188    21.379157    21.732369    10835.805     1564.644    2954.8748    1955.3574   -35.590849    449.10749   -737.10785   -5954.7483 
21123000    135.96793   -6673.1372    -6323.368   -6673.1372            0    1507.9192    23.354585    21.317664    21.830251    10868.522    1602.3768    1496.9509      1424.43    127.76019   -614.89521     445.4886   -6084.3534 
21124000    141.26886   -6671.7095    -6308.304   -6671.7095            0    2036.9156    23.439081    21.313463    21.652725    10817.009    532.57849    2539.0692     3039.099    445.83821   -155.38603   -169.15522   -5986.9704 
21125000    135.97539   -6646.1229   -6296.3345   -6646.1229            0    2336.4967     23.40742     21.29248     21.73709     10833.81    1181.6959    3265.7211    2562.0732    658.58559    505.48603   -149.06405    -5927.168 
21126000    136.09902    -6666.621   -6316.5146    -6666.621            0    3537.7434    23.329127    21.236409    21.772164    10786.515    3620.7943    4335.0592    2657.3766   -802.44962   -391.71432   -604.78085   -5759.9912 
21127000    137.85072   -6673.5025     -6318.89   -6673.5025            0    1690.4239    23.362993    21.334753    21.728042    10830.206     1303.569    1582.4996    2185.2031   -299.01146    766.93749    676.90712   -6051.8918 
21128000    138.82139   -6671.7969   -6314.6874   -6671.7969            0    1592.9094    23.345546    21.470846    21.666481    10860.294    1334.4315    1739.0365    1705.2603    169.63404    190.88614   -768.02492   -6062.3924 
21129000    136.05367   -6640.1104   -6290.1207   -6640.1104            0     2880.659    23.222195    21.409752     21.76717    10822.233    1761.2338    3965.3235    2915.4196    30.094994     932.6448   -407.08927   -5835.4629 
21130000    127.54678   -6671.7903    -6343.684   -6671.7903            0    2141.4335    23.236703    21.457401    21.695668    10817.444    2787.5026    1701.5141    1935.2839    586.27278   -494.37944    152.38419   -6005.8486 
21131000    130.42796   -6674.8296   -6339.3117   -6674.8296            0    2640.6171    23.227788    21.476325    21.712984    10831.468    3360.7671    1875.9441    2685.1401    163.04851   -222.18879   -230.46082   -5922.1844 
21132000    142.52466   -6662.6094   -6295.9734   -6662.6094            0    2414.4824    23.203396    21.432918    21.748808    10816.041    2445.4312    2195.7705    2602.2453    4.6804653    -175.9155   -39.341112   -5915.1109 
21133000    139.37819   -6662.5668   -6304.0249   -6662.5668            0    2792.1574    23.321461    21.367984    21.656083    10791.932    2380.7934    2874.3277    3121.3511    476.66394   -138.88378    393.44435   -5864.5693 
21134000    131.52588   -6673.4348   -6335.0925   -6673.4348            0    2276.5339     23.26864    21.365763    21.758487     10817.28    1715.3618     2716.475    2397.7649   -422.76958     1094.443   -17.010229   -5975.9489 
21135000    134.89578   -6684.0497   -6337.0385   -6684.0497            0     1934.759    23.409517    21.357144    21.647468    10822.878    1824.5046    1744.2885    2235.4838    440.26059   -633.58813     42.57539    -6031.655 
21136000    131.91713   -6642.2937   -6302.9449   -6642.2937            0    1850.5403    23.344495    21.378009    21.759894    10859.467    2034.1707    1413.9505    2103.4997   -550.23564   -47.902483    206.81083   -6009.8671 
21137000    133.34166   -6663.6301   -6320.6168   -6663.6301            0    2365.6343    23.323397    21.299556    21.802234     10830.87    2954.2092    2141.6098    2001.0839    332.00142   -178.53113    269.47273    -5946.948 
21138000    135.83158   -6682.2367   -6332.8182   -6682.2367            0    2277.0042     23.38706    21.343111    21.670087     10816.68    1758.4445    2192.5761    2879.9919    212.14131   -831.83075    638.54255   -5973.6204 
21139000    133.89626   -6670.2897   -6325.8497   -6670.2897            0    2132.4709    23.363171    21.312605    21.753478     10831.71    2730.7738    1741.8353    1924.8038   -262.40407   -422.22484    -350.6131   -5988.9846 
21140000    134.14191   -6663.5035   -6318.4316   -6663.5035            0    1825.2008    23.288968    21.385085    21.773985     10844.24    1135.7308    1460.7337    2879.1379    180.55725    342.02219    1072.4056   -6029.7723 
21141000    132.75439    -6670.514   -6329.0114    -6670.514            0    1898.4102    23.308802    21.452643    21.689749    10845.643    1115.8477    2510.3436    2069.0394    362.00307    420.08022   -417.18071    -6028.735 
21142000     130.8987    -6650.259     -6313.53    -6650.259            0    2156.2832    23.227753    21.469609    21.738086    10840.583    2364.6017    1588.5342    2515.7135   -735.25731   -180.14005    -666.4222   -5972.6243 
21143000    131.52364   -6650.0835    -6311.747   -6650.0835            0     2142.025    23.226167    21.507229    21.678911    10829.277    1933.9271    2326.1841    2165.9638    174.71654    998.62385   -61.941381   -5973.4486 
21144000    137.98829   -6679.1436   -6324.1771   -6679.1436            0     838.4677    23.235804    21.533669    21.753776    10884.548    1207.7976    1368.2452    -60.63972   -237.61209    -52.18182   -122.12684   -6191.0788 
21145000    136.45361   -6646.5525   -6295.5339   -6646.5525            0    1100.0658    23.253358     21.58458    21.744272    10913.754    1855.2024    102.49065    1342.5045   -259.37615   -56.439953    16.092803    -6120.441 
21146000    135.68406   -6671.8458   -6322.8069   -6671.8458            0    2215.4896    23.199281    21.533983    21.678949    10830.216    2182.1458     1652.586     2811.737   -419.71795    1171.9592    1003.0909   -5972.8756 
21147000    135.78181    -6681.256   -6331.9656    -6681.256            0    1099.4507    23.271348    21.454707    21.780722    10874.678    1522.8941    825.67222    949.78576    486.15304   -410.67127   -925.55915   -6157.5971 
21148000    133.23269   -6674.1493   -6331.4164   -6674.1493            0     1217.181     23.31601    21.392268     21.75887     10852.94    1218.9655    1338.6392    1093.9383   -624.10725   -39.271913   -809.16246   -6138.7622 
21149000    136.67735   -6646.2004   -6294.6062   -6646.2004            0    2393.4081    23.407432    21.283775     21.76276    10842.175    1595.8305    3738.5123    1845.8816   -733.46896    1095.6702   -312.59751   -5916.1558 
21150000    133.76251   -6668.5702   -6324.4743   -6668.5702            0    1409.6097    23.408061     21.40322    21.704291     10874.02    864.75382    2118.7457    1245.3295   -486.81789   -335.79039    2.5927007   -6100.9294 
21151000    135.81566   -6652.2568   -6302.8792   -6652.2568            0    1883.9612     23.35684    21.348701    21.790064    10865.358    1434.8685    2435.8951      1781.12    36.417646    726.50677      10.8129   -6004.3465 
21152000    134.58392   -6678.0829    -6331.874   -6678.0829            0    1942.3519    23.414216    21.331003    21.704204    10840.137    2132.9456    1953.9938    1740.1161   -586.69222   -211.05669   -764.56464   -6024.8032 
21153000    132.89246    -6637.475   -6295.6173    -6637.475            0    1408.4561    23.552684    21.298889    21.700512    10885.975    508.33132    2864.2104    852.82647    406.03109    192.18294   -933.18568   -6072.0097 
21154000    137.21153   -6669.5039   -6316.5356   -6669.5039            0    1165.3508    23.339979    21.396712    21.774901     10874.36    571.02793     1605.827    1319.1975   -173.08189   -335.90145    1028.7659    -6131.721 
21155000    132.51494   -6671.9516    -6331.065   -6671.9516            0    2053.4066    23.327287    21.352267    21.779712    10848.267    1866.8837    1637.5748    2655.7614    379.48771    569.47076   -95.664302   -6006.1937 
21156000    131.13224   -6684.2529   -6346.9232   -6684.2529            0    1289.3041     23.35993    21.415813    21.651303    10831.538    1257.4729    566.35378    2044.0857    117.53772   -414.39128    1023.8327   -6143.2559 
21157000    129.76126   -6659.0817   -6325.2788   -6659.0817            0    1013.3344    23.306132    21.463948    21.775687    10893.105    794.15645    843.80866    1402.0381    854.69019    206.24738    644.96641   -6164.2957 
21158000    128.99939   -6661.3068   -6329.4637   -6661.3068            0    1374.1203    23.268501    21.509971    21.772956    10897.469    1935.3374    458.48576    1728.5377   -1457.6612    476.14587    226.74521    -6111.077 
21159000    133.07483   -6655.2748   -6312.9479   -6655.2748            0    2005.9238    23.234936    21.544489    21.626648    10825.972    2124.9708    1657.0848    2235.7158    683.58447    215.40581   -365.07999   -5996.2412 
21160000    133.80619   -6666.7383     -6322.53   -6666.7383            0    2138.4567    23.140014    21.528994    21.697575    10809.325    2187.9367    1517.6743    2709.7591   -125.29459    104.28611    988.88889   -5985.4174 
21161000    131.95118   -6675.2075   -6335.7711   -6675.2075            0    1865.5593    23.230998    21.520329    21.661854    10829.599    2150.7556    1663.3224    1782.5999   -728.05574   -114.70927    -114.0159   -6041.1273 
21162000    136.05494   -6666.8394   -6316.8464   -6666.8394            0     2340.626    23.219565    21.485601    21.694054    10822.867    1849.3776    2180.9256    2991.5748     242.0288   -362.24551   -212.97885    -5947.401 
21163000    130.66639   -6652.3697   -6316.2383   -6652.3697            0    1848.6084     23.22476     21.47125    21.760028    10850.956    2093.1495    2620.2822    832.39339    -10.99367    76.709145   -365.69137   -6023.6959 
21164000    134.40302   -6675.0937   -6329.3502   -6675.0937            0    1872.1266    23.218677    21.437113    21.749458    10825.606    2572.8808    1786.9767    1256.5223    70.714143   -685.39975   -25.697206   -6033.7781 
21165000    138.12305   -6670.4094   -6315.0962   -6670.4094            0    2573.4073    23.290182     21.41137    21.664546    10803.561    3748.7859    1348.9027    2622.5333   -449.44724    128.95171   -64.981319   -5909.6331 
21166000    135.75284   -6650.6474   -6301.4315   -6650.6474            0    1045.1833     23.37439    21.392668    21.762244    10882.005    1340.2683    789.39139    1005.8901    142.36106   -530.31176   -388.79927   -6135.5579 
21167000     134.9394   -6666.2363   -6319.1129   -6666.2363            0    1761.1951    23.388978    21.285943    21.795499     10851.03    1218.4421     2191.306     1873.837    430.50698    -746.1024     9.969024   -6040.4018 
21168000    137.53902   -6654.1637   -6300.3529   -6654.1637            0     2824.764    23.375238    21.348334    21.668072    10812.853     2310.118    2660.2003    3503.9737     130.5226    535.40872    573.76267   -5854.9036 
21169000    144.62692   -6658.3239     -6286.28   -6658.3239            0    1841.9844    23.360428    21.393845    21.725217    10857.598     1889.946     1734.656    1901.3511   -1003.6749     -98.9272      147.266   -5994.6074 
21170000    135.55503   -6667.4904   -6318.7833   -6667.4904            0    2311.4951    23.367903    21.282023    21.767801    10825.481    1858.2474    2868.7821    2207.4558     816.7339     233.9661    485.32267   -5953.8479 
21171000    131.20526   -6656.8348   -6319.3172   -6656.8348            0    2093.9997    23.341635    21.308308    21.791672     10838.54    2275.2939    2240.8217    1765.8836   -821.70961   -38.595126    106.44015   -5988.3208 
21172000    136.28729   -6663.3466   -6312.7558   -6663.3466            0    2535.8044    23.392334     21.43179    21.574933    10816.368    2085.1037     2521.645    3000.6643    407.53719    8.8436088   -382.41131   -5912.7437 
21173000    129.82085   -6658.7017   -6324.7454   -6658.7017            0     2660.468    23.162565    21.358899     21.85219    10810.865    2762.2049    2523.6258    2695.5733    856.67768   -82.526202    1284.3928   -5905.2817 
21174000     130.7805   -6665.1512   -6328.7263   -6665.1512            0    1981.1144    23.217717    21.504768    21.691884    10830.576    1977.4889    2048.6166    1917.2378    209.19911    389.84603    -219.3051   -6015.8037 
21175000    140.46453   -6672.2909   -6310.9544   -6672.2909            0    2532.0853    23.286618     21.50249    21.582301    10806.695    2423.6427    2027.2417    3145.3715     106.7223   -95.834608    407.63442   -5911.8862 
21176000    134.53284   -6676.3694   -6330.2919   -6676.3694            0    2133.0279    23.133777    21.477023    21.802491    10832.451    3030.9637    1846.2975    1521.8224   -818.41411    569.96706    71.116158   -5993.3157 
21177000    134.22907   -6640.1033   -6294.8072   -6640.1033            0    1941.8458    23.190298     21.54059    21.767903    10873.779    2383.4001    2222.6689    1219.4684   -238.94399   -1043.6726   -883.95739   -5986.8636 
21178000    134.93879   -6655.0501   -6307.9283   -6655.0501            0    2250.0741    23.280047    21.482366    21.651192    10827.988     2524.151    1250.0422     2976.029    818.44665   -396.61211    770.87382   -5952.6076 
21179000     136.6189   -6669.2928    -6317.849   -6669.2928            0     1914.696    23.209646    21.529146    21.713011    10849.641    2167.6389    1051.2371    2525.2121   -691.56372    400.22284   -193.30734    -6014.885 
21180000    137.32064   -6665.2284   -6311.9794   -6665.2284            0    2363.0946     23.22195    21.456006    21.742911    10833.412    2377.7213    2442.1108    2269.4517    300.17068   -31.831671    -393.7175   -5938.6242 
21181000    133.30087   -6663.5813   -6320.6729   -6663.5813            0    2199.5095    23.277272    21.441023    21.680279    10820.378    2522.4383     1490.046     2586.044    277.46604    358.91392    292.89873   -5973.5813 
21182000    143.75483   -6672.7899   -6302.9894   -6672.7899            0    2907.8476    23.303478    21.354837    21.691316    10794.509    3357.3494    3339.3141    2026.8793    223.79847   -1207.9859   -280.29854   -5845.2161 
21183000    129.17778   -6656.0682   -6323.7663   -6656.0682            0    3133.3804    23.219813    21.288306    21.811014    10781.413    3834.6993    3191.5992    2373.8428   -48.535926    975.27765    755.88376   -5831.0865 
21184000    133.83747   -6672.3785   -6328.0897   -6672.3785            0    2826.8271    23.300206    21.366907    21.693357     10800.11    2004.8354    3519.0318    2956.6141    280.16504    637.76852    428.31578   -5882.8403 
21185000    140.73271   -6666.1461   -6304.1197   -6666.1461            0    2641.1746    23.285212    21.377141    21.731939    10817.534    2851.3901    2475.4998     2596.634     78.25938   -925.76367    1111.1852    -5887.441 
21186000    135.46646   -6649.6088   -6301.1296   -6649.6088            0    2160.3163    23.299178      21.3643    21.767313    10835.129    2308.9389    2316.6485    1855.3615    174.38414    1144.7797    841.16087    -5959.758 
21187000    132.50778   -6676.9834   -6336.1152   -6676.9834            0    1181.3918    23.363554    21.459191    21.697032    10878.088    1139.5045    1007.4651     1397.206    38.329804   -512.21257    219.60424   -6148.6924 
21188000    141.87173   -6666.6393   -6301.6829   -6666.6393            0    816.09065    23.359234    21.383134    21.854877    10916.372    142.67318      1853.66    451.93878     573.1257    578.13541   -64.205729   -6171.7579 
21189000    127.79658    -6669.935   -6341.1861    -6669.935            0    524.68855    23.428797    21.388982    21.737818    10893.214   -164.38074    585.38157    1153.0648   -486.61196    71.021289    1050.2821   -6257.8307 
21190000    140.33953   -6643.9768    -6282.962   -6643.9768            0    2243.4456     23.43868    21.335301    21.689908      10846.5    1907.4105    2558.5726    2264.3537   -108.06864   -822.06699   -1171.0394   -5928.0823 
21191000     140.9397   -6667.1485   -6304.5897   -6667.1485            0    2042.6653    23.299664    21.336313    21.792445    10833.654    2310.5622    2580.9927     1236.441   -174.77925   -364.79939    509.15466   -5981.8533 
21192000    134.79246   -6658.2717   -6311.5263   -6658.2717            0    2086.6147    23.447852    21.324384    21.657777    10829.127     326.8766    2848.0433    3084.9243    1428.9839    505.58479    510.35313   -5981.9837 
21193000    132.43639   -6666.3091   -6325.6246   -6666.3091            0    1917.4045    23.331629    21.370275    21.768795    10853.993    2423.2845    1943.2411     1385.688    703.45384    -1007.864   -529.04255   -6022.1103 
21194000    137.38553   -6667.8507   -6314.4348   -6667.8507            0    2215.6005    23.295101    21.366428    21.781005    10841.127    1587.6451    3590.1059    1469.0504    438.45654   -315.42407   -272.26322   -5964.1335 
21195000    133.53915   -6649.1182   -6305.5969   -6649.1182            0    2367.0821    23.304573      21.3965    21.773478    10857.046    2770.8446    2849.9256    1480.4761    -200.5145   -301.28457   -371.52262   -5930.7957 
21196000    133.55606   -6664.3819   -6320.8171   -6664.3819            0    1860.1458    23.217793    21.452578    21.756763    10836.642    2423.0146    1815.8456    1341.5773    -494.9318    552.91251   -297.89816   -6026.8372 
21197000    132.26424   -6654.3178   -6314.0761   -6654.3178            0    1123.8301    23.282028    21.529746    21.703435     10878.98    1283.7743    1108.7944    978.92144    220.04062   -18.724901    88.843521   -6135.7706 
21198000    138.54692    -6659.106   -6302.7024    -6659.106            0    1501.0374    23.280555    21.586398    21.630913    10870.471    1175.2333    521.32437    2806.5547    159.84975   -72.068624    66.096997    -6064.736 
21199000    139.92975    -6669.551   -6309.5903    -6669.551            0    1653.0183     23.21984    21.513235    21.760693    10870.203    2291.7254    832.36871    1834.9609    22.802452   -90.275256   -208.83023    -6047.536 
21200000    133.42028   -6668.7178   -6325.5022   -6668.7178            0    2000.5772    23.219097    21.440829    21.760485    10833.168    2229.9099    1373.6637    2398.1579   -59.909336    384.83901    7.3413173   -6009.4298 
21201000    135.79263   -6659.2869   -6309.9686   -6659.2869            0    1240.2486    23.234644     21.57247    21.700096     10876.71     2305.727    674.55167    740.46698    -106.9766    752.81902   -520.19408   -6113.2334 
21202000    134.93637   -6664.1324   -6317.0168   -6664.1324            0    2188.3649    23.204465    21.492344    21.744057     10844.16    1989.1177    2054.2128    2521.7643    475.03494   -137.72044    458.51513   -5970.9248 
21203000     128.4845   -6675.4108   -6344.8922   -6675.4108            0    1861.6323    23.252937    21.423297    21.735118    10827.448    531.30222    2973.1738    2080.4209    1324.4999    526.41233    189.36369    -6050.927 
21204000     134.8555   -6669.6487   -6322.7412   -6669.6487            0    2113.5715    23.371611    21.465144    21.586531    10829.423    1389.5969    1615.7442    3335.3734    290.40055   -64.625911   -147.75485   -5988.9321 
21205000    132.77071   -6667.7532   -6326.2086   -6667.7532            0    2017.1474     23.27405    21.370727    21.787683    10836.831    2398.4874    2040.0822    1612.8725    46.029193   -549.56255   -215.23667   -6007.4105 
21206000    130.60329   -6670.2754   -6334.3064   -6670.2754            0    1806.2527    23.293253    21.393466    21.778968    10852.969    1588.5438    1892.5732    1937.6411   -213.25233    1310.8143    372.23166   -6048.4137 
21207000    129.68884   -6665.0109   -6331.3942   -6665.0109            0    1767.2069    23.468733    21.405666    21.588209    10845.136   -471.01768    2219.9529    3552.6855    303.16876    248.70945   -177.14928   -6051.8837 
21208000    139.41287   -6670.7949   -6312.1638   -6670.7949            0    1547.9698    23.379785    21.255587    21.849587    10858.175    1133.0871    2211.2498    1299.5724   -561.91701    442.38777     134.4323   -6067.0345 
21209000     143.2769   -6673.4581    -6304.887   -6673.4581            0    2039.0647    23.334843    21.383158    21.726876    10841.116    1562.5802    2478.9215    2075.6922    692.74994    -339.4818    684.59573   -5982.4975 
21210000    137.92285   -6677.2472    -6322.449   -6677.2472            0     2124.985    23.386043    21.350153    21.672898    10821.182    2539.1666    1499.4647    2336.3236    660.97513   -389.51818     416.8408   -5987.0927 
21211000    139.96084   -6666.6131   -6306.5723   -6666.6131            0     1693.078    23.273755    21.361725    21.844155    10860.205    1236.2968    2522.5134    1320.4238   -480.50756    -99.01729    106.61933   -6038.4143 
21212000    133.90075   -6671.7539   -6327.3024   -6671.7539            0    1590.6342    23.337268    21.431482    21.707487    10857.048    1742.4489    1627.3715    1402.0821    561.68591   -58.519312   -683.39259   -6075.4431 
21213000    132.62742   -6660.6776   -6319.5016   -6660.6776            0     1476.254    23.227737    21.495461    21.737203    10853.188    2041.0581    678.94844    1708.7555   -1076.6773   -248.79178   -3.1283147   -6085.8363 
21214000    135.15986   -6662.5667   -6314.8762   -6662.5667            0    3130.0189    23.193442    21.406005    21.751876    10799.348    3682.6376    3098.3319    2609.0872    1077.7341   -1316.1625   -842.16008   -5821.9064 
21215000    127.14151   -6664.5002   -6337.4364   -6664.5002            0    2161.1579     23.21702    21.480149    21.680233    10812.042    3612.2148    1124.6811    1746.5778   -792.78598   -170.71486    23.993794   -5996.6596 
21216000    131.28224   -6655.2144   -6317.4988   -6655.2144            0    1789.1255    23.305221    21.477227    21.666113    10844.573    1264.4417    1563.2256    2539.7092    857.20104   -251.46567   -196.63149   -6034.5361 
21217000    136.88322   -6671.9419   -6319.8181   -6671.9419            0    2721.9272    23.219047    21.461227    21.710369    10818.478    1813.0578    3079.1373    3273.5866   -2.8918469     526.0803    159.07085   -5890.3622 
21218000     132.7509   -6645.3485   -6303.8549   -6645.3485            0      2176.22    23.176877    21.469852    21.742858    10819.336    2044.9452    1894.5187    2589.1959    446.58621    135.31377    29.173229   -5960.4715 
21219000    138.18033   -6674.1876   -6318.7272   -6674.1876            0    2481.3204    23.293334    21.469539    21.609145    10806.672    2967.3564    1693.7426    2782.8622   -54.842322   -682.81851   -79.933746   -5927.6606 
21220000    129.35425   -6672.0368   -6339.2809   -6672.0368            0    2198.1357    23.243823    21.364936    21.808311    10830.068    1992.2449     3247.025    1355.1372   -789.29608    395.11079   -433.40968   -5992.0954 
21221000    131.56427   -6663.2357   -6324.7947   -6663.2357            0    2006.4726    23.374477     21.37886    21.683129    10835.486    1573.3917     2278.333    2167.6931    802.05839   -115.40438   -69.748119   -6007.7229 
21222000    133.92816   -6669.1611   -6324.6391   -6669.1611            0    1713.0626    23.413025    21.350691     21.66875    10831.867    916.93105    1128.5534    3093.7033     -457.149     307.5303    681.51697   -6054.0237 
21223000     137.6732   -6680.8523   -6326.6963   -6680.8523            0    2402.5587    23.287785    21.290448    21.817967    10817.509    2917.1159    2439.3547    1851.2056    470.77969    44.359623    240.38814   -5947.6632 
21224000    137.58614   -6653.2186   -6299.2866   -6653.2186            0    2655.8856    23.320376    21.358719    21.685088    10801.199    2671.0517    3280.8852    2015.7199    387.90415   -258.35232    154.47995   -5880.9198 
21225000    136.10562   -6677.4275   -6327.3041   -6677.4275            0    2254.5581    23.286021     21.30522    21.811079    10820.778     2256.921    3416.5145    1090.2389   -229.07446    760.04619   -665.10585   -5971.5124 
21226000      133.272   -6662.0243   -6319.1902   -6662.0243            0     2766.277    23.315863    21.374575    21.665256    10797.241     2767.305    2455.0051    3076.5209    160.57404    53.693642    505.75434   -5883.5937 
21227000    144.42863   -6657.7028   -6286.1689   -6657.7028            0    1843.5452    23.316475    21.425618    21.684812    10833.079    2041.7105    2159.3975    1329.5277   -772.73689    455.70357   -1299.8907   -5994.9084 
21228000    139.53138   -6649.3118   -6290.3759   -6649.3118            0    2493.9276    23.152848    21.403729    21.832153    10819.082    3031.0964    2696.9074    1753.7788   -155.49704    937.81369    50.365582    -5896.871 
21229000    131.30436   -6642.2336   -6304.4612   -6642.2336            0    3182.8069    23.233107    21.392931    21.695409    10783.144    3622.8371    3933.1205    1992.4631   -8.3612412   -367.85924   -558.41635   -5803.9295 
21230000    142.52054    -6662.492   -6295.8666    -6662.492            0    2928.9262    23.268344    21.429433     21.66201    10801.272    2821.3236    2305.5529    3659.9021   -154.87455    140.06304   -224.65557   -5834.4861 
21231000    144.73087   -6670.3075   -6297.9962   -6670.3075            0    1588.1039    23.277938    21.380049    21.794824    10846.923    1318.4033    2112.2229    1333.6854    260.50711   -51.708931   -128.95504    -6046.772 
21232000    135.69397   -6656.0691   -6307.0046   -6656.0691            0     1998.484    23.283001    21.444954    21.721027    10845.371    2212.1387    1756.0364    2027.2767   -879.41921    3.9921918   -1660.8176   -5990.9072 
21233000    137.25651   -6677.8867   -6324.8027   -6677.8867            0    2256.5574     23.36833    21.416273    21.576676    10798.318    2731.7057    2027.8742    2010.0923     636.5623   -919.05181    440.34096   -5969.4346 
21234000    134.47579     -6661.22   -6315.2892     -6661.22            0    2688.0265    23.230776    21.334145    21.820627    10814.494    3471.8268    2536.1184    2056.1342    325.82804   -871.95155    197.69285   -5891.3382 
21235000    131.64047   -6659.0217   -6320.3846   -6659.0217            0    1919.1209    23.333585    21.415416    21.738397    10862.643    1650.1282    1868.9112    2238.3234   -646.60195    623.86209   -259.86841   -6016.3565 
21236000     134.6809   -6666.4818   -6320.0234   -6666.4818            0    1536.2895    23.418333     21.45116    21.613088    10857.344    1357.5615    603.72487    2647.5822    599.52343   -110.85047    1009.8856   -6076.7623 
21237000    132.95201   -6668.9138   -6326.9029   -6668.9138            0    2523.5608    23.267899    21.342916    21.790178    10821.107    2650.4428    2736.5509    2183.6885   -348.27232   -54.026769   -371.69165   -5928.6478 
21238000    137.60457   -6653.7229   -6299.7435   -6653.7229            0    1735.7793    23.311083    21.362315    21.849724    10880.697    1278.5255    2014.4826      1914.33    211.22517   -715.16416    256.25675   -6024.3035 
21239000    131.49493   -6657.9092   -6319.6465   -6657.9092            0    1348.7589     23.44112    21.465073    21.558706    10847.594    254.02362    1803.1057    1989.1473   -221.68813    804.78673    125.44041   -6106.2714 
21240000     132.3106   -6650.3526   -6309.9917   -6650.3526            0    2706.0549    23.258711     21.39208    21.755678    10824.585    3227.5292    2507.7533    2382.8821   -50.352345   -221.51297    672.41798   -5882.7991 
21241000    133.86801   -6667.0806   -6322.7133   -6667.0806            0    2917.6883    23.252735    21.318268    21.783278    10798.146    3295.4344    2853.5305       2604.1    546.90886   -1123.7839    32.886181   -5863.2361 
21242000    134.77936   -6665.6266   -6318.9149   -6665.6266            0    3126.9658    23.315305    21.416476    21.574225    10772.694    3677.3329    2079.2989    3624.2657   -566.71658    84.476061    106.92362   -5827.6414 
21243000    137.34176   -6658.4885   -6305.1852   -6658.4885            0    3095.3604     23.29946    21.374313     21.65581    10784.808    3252.1067    3354.2637    2679.7108    245.57387   -540.07699   -148.93407   -5818.3303 
21244000    136.31932   -6664.3915   -6313.7184   -6664.3915            0    2850.5129    23.237132    21.324717    21.770091     10787.63    4191.2959     3484.743    875.49987   -518.23879   -227.67472   -642.51976   -5865.2571 
21245000    140.82316   -6648.6623   -6286.4033   -6648.6623            0     4275.442    23.320402    21.376296    21.560822    10748.152    2825.6886    5129.8048    4870.8327   -30.728711    14.294771    372.98131   -5616.2244 
21246000    130.58827    -6657.895   -6321.9647    -6657.895            0    3040.1306     23.27291    21.348772    21.669611    10766.504    3017.9059    4015.1801    2087.3058    920.07638   -702.73765   -44.661724   -5844.6082 
21247000    133.12779   -6658.7138   -6316.2507   -6658.7138            0    1549.4618    23.202992    21.449689    21.820895    10860.193    1696.3469    1820.3423    1131.6961   -671.50278     252.8738    388.69362   -6070.8396 
21248000    137.61839   -6661.1696   -6307.1547   -6661.1696            0    2170.3658    23.284631    21.456544    21.699872    10841.423    2369.6227    1862.1439    2279.3309    434.01387   -223.76126   -306.81642   -5963.9959 
21249000     138.8351    -6682.032   -6324.8871    -6682.032            0    2343.6565    23.274158    21.454947    21.615009    10793.365    3043.1208    1703.4526     2284.396    500.66126   -492.44992     267.2043   -5955.9718 
21250000    139.36767   -6646.2395   -6287.7247   -6646.2395            0    2295.1456    23.235241    21.386142      21.7938    10829.604    2050.3265    2633.8066    2201.3037   -204.52682     1151.468   -78.778241   -5925.2324 
Loop time of 552.396 on 64 procs for 250000 steps with 1296 atoms

Performance: 78.205 ns/day, 0.307 hours/ns, 452.574 timesteps/s
196.5% CPU use with 32 MPI tasks x 2 OpenMP threads

MPI task timing breakdown:
Section |  min time  |  avg time  |  max time  |%varavg| %total
---------------------------------------------------------------
Pair    | 36.405     | 47.757     | 56.919     |  93.4 |  8.65
Bond    | 0.67854    | 0.96069    | 1.1747     |  12.9 |  0.17
Kspace  | 289.64     | 301.86     | 312.78     |  39.4 | 54.65
Neigh   | 1.5789     | 1.687      | 1.8033     |   5.0 |  0.31
Comm    | 73.485     | 78.525     | 82.603     |  26.8 | 14.22
Output  | 0.57563    | 0.57593    | 0.57769    |   0.0 |  0.10
Modify  | 103.78     | 107.57     | 109.57     |  11.6 | 19.47
Other   |            | 13.46      |            |       |  2.44

Nlocal:        40.5000 ave          51 max          29 min
Histogram: 5 2 1 4 2 3 4 3 3 5
Nghost:        3074.09 ave        3103 max        3048 min
Histogram: 2 4 1 6 4 4 4 2 3 2
Neighs:        12896.1 ave       16128 max        9186 min
Histogram: 5 2 0 5 2 3 2 5 3 5

Total # of neighbors = 412676
Ave neighs/atom = 318.42284
Ave special neighs/atom = 2.0000000
Neighbor list builds = 3690
Dangerous builds = 0

unfix		3
unfix		2
unfix		1

write_data	data.final.${pid}
write_data	data.final.0
System init for write_data ...
PPPM initialization ...
  extracting TIP4P info from pair style
  using 12-bit tables for long-range coulomb (../kspace.cpp:340)
  G vector (1/distance) = 0.36831981
  grid = 30 40 32
  stencil order = 5
  estimated absolute RMS force accuracy = 0.0042921928
  estimated relative force accuracy = 1.2925811e-05
  using double precision FFTW3
  3d grid and FFT values/proc = 7888 1280
Last active /omp style is kspace_style pppm/tip4p/omp
WARNING: Not all mixed pair coeffs generated from mixing. Use write_data with 'pair ij' option to store all pair coeffs. (../write_data.cpp:312)

write_restart   restart.lmp.${pid}
write_restart   restart.lmp.0
System init for write_restart ...
PPPM initialization ...
  extracting TIP4P info from pair style
  using 12-bit tables for long-range coulomb (../kspace.cpp:340)
  G vector (1/distance) = 0.36831981
  grid = 30 40 32
  stencil order = 5
  estimated absolute RMS force accuracy = 0.0042921928
  estimated relative force accuracy = 1.2925811e-05
  using double precision FFTW3
  3d grid and FFT values/proc = 7888 1280
Last active /omp style is kspace_style pppm/tip4p/omp
Total wall time: 0:09:12
