LAMMPS data file via write_data, version 30 Jul 2021, timestep = 24250000

1920 atoms
2 atom types
1280 bonds
1 bond types
640 angles
1 angle types

-0.03593851034864137 24.765939510344857 xlo xhi
-0.03578677272169983 24.76578777271093 ylo yhi
0.017108794164025554 22.792891205840668 zlo zhi

Masses

1 1.008
2 15.999

Pair Coeffs # lj/cut/tip4p/long/omp

1 0 0
2 0.21084 3.1668

Bond Coeffs # harmonic/omp

1 450 0.9572

Angle Coeffs # harmonic/omp

1 55 104.52

Atoms # full

1 1 2 -1.1794 4.524107690071942 1.5367309488516376 4.2472304011036455 0 0 0
2 1 1 0.5897 4.616238351010795 2.280405866368443 4.842811626297848 0 0 0
3 1 1 0.5897 5.2398207010886 1.6412723346448572 3.6201372652272066 0 0 0
4 2 2 -1.1794 2.9584714759974053 1.2049289755760118 2.0756814371773613 0 0 0
5 2 1 0.5897 3.269187607865783 1.3405364213322573 2.970948457522459 0 0 0
6 2 1 0.5897 2.012989876935313 1.346180335106611 2.125787430010402 0 0 0
10 4 2 -1.1794 3.25262202797939 4.639531043959553 3.364543087473865 0 0 0
11 4 1 0.5897 2.882132770715295 5.422668808011688 3.7715624793660094 0 0 0
12 4 1 0.5897 2.690946827504493 4.474073654969254 2.607199919424835 0 0 0
13 5 2 -1.1794 1.5340414509219105 2.9498857818958113 5.043085037344384 0 0 0
14 5 1 0.5897 2.285038480813552 3.306204887487045 4.568302487494578 0 0 0
15 5 1 0.5897 1.5806351554417943 2.00588056422436 4.89202734509396 0 0 0
22 8 2 -1.1794 1.4680815902164184 4.439645675050839 1.4452238080942563 0 0 0
24 8 1 0.5897 1.2587896988309126 5.19562603776785 0.8966487523434025 0 0 0
23 8 1 0.5897 0.8474139135501187 4.491391707082875 2.1722194239568178 0 0 0
20 7 1 0.5897 3.7634121795915427 2.704072435056858 1.0116293797820053 0 0 0
9 3 1 0.5897 5.0878970968527755 4.8391404712292765 3.383754120228616 0 0 0
19 7 2 -1.1794 4.498435739326172 3.2273277835919782 0.6918176008887174 0 0 0
21 7 1 0.5897 5.25975101754646 2.8822585546657056 1.158407002142206 0 0 0
27 9 1 0.5897 4.536830006895738 5.008041767052933 0.5016012911591805 0 0 0
25 9 2 -1.1794 4.622242887762448 5.960042079491154 0.45130633759428707 0 0 0
28 10 2 -1.1794 1.6865227017794162 0.1082585500682722 4.721242184628692 0 0 0
7 3 2 -1.1794 6.01388738189629 4.644363468202349 3.5286630251560114 0 0 0
16 6 2 -1.1794 0.24742005292231706 1.522485445101487 2.0096143606175545 0 0 0
98 33 1 0.5897 0.18600305933924252 5.369948648845079 3.8587660678657842 1 0 0
99 33 1 0.5897 0.02032889994532272 3.8832229885530336 4.090837344695015 1 0 0
387 129 1 0.5897 4.04583816157871 0.07717055304833186 1.1621436286126712 0 1 0
26 9 1 0.5897 5.399927554464708 6.159101837825158 0.9728300122314907 0 0 0
1455 485 1 0.5897 1.4721348604453102 3.1506898949761606 0.018693810735634114 0 0 1
867 289 1 0.5897 4.751658414016163 0.1603176535466236 5.522156554352562 0 1 0
47 16 1 0.5897 5.903026712772937 0.8025499057510073 1.7536976099326822 0 0 0
270 90 1 0.5897 0.930836133974515 12.254374327998853 4.595661333502644 0 0 0
218 73 1 0.5897 0.29910283663928955 10.883398280928862 2.8954846171955686 1 0 0
136 46 2 -1.1794 0.2446132716000724 7.68541993098597 2.2827364270640365 0 0 0
148 50 2 -1.1794 1.6348361645679523 6.236445344418061 4.822418585622411 0 0 0
121 41 2 -1.1794 4.590055885647039 7.7404598296724 4.230267824411925 0 0 0
122 41 1 0.5897 3.832112578783187 7.665107605544963 3.6503863956959712 0 0 0
123 41 1 0.5897 5.342759141822816 7.564876363176308 3.66544813990891 0 0 0
124 42 2 -1.1794 2.9460135091064723 7.6427920871850095 1.849836553094004 0 0 0
125 42 1 0.5897 3.230254251175456 6.993188137065164 1.2067818006947209 0 0 0
126 42 1 0.5897 3.4159040665415095 8.440956035130842 1.6082789629290708 0 0 0
129 43 1 0.5897 5.153284994092444 10.87393248242348 3.6085950693436324 0 0 0
130 44 2 -1.1794 3.2484654341787893 10.952366501653756 3.5545404722643625 0 0 0
132 44 1 0.5897 2.8355722494383575 10.20123777213149 3.9806585707786013 0 0 0
133 45 2 -1.1794 1.5774054137643463 9.075089263335046 4.827681423780383 0 0 0
135 45 1 0.5897 0.846929976405918 9.426941362853084 4.3187775903846415 0 0 0
137 46 1 0.5897 1.1911141583258429 7.599852204604526 2.16777175507966 0 0 0
139 47 2 -1.1794 4.889292748009943 9.396647426896292 0.8956876922200261 0 0 0
142 48 2 -1.1794 1.2909047988929794 10.804874497644503 1.4655715297910286 0 0 0
143 48 1 0.5897 2.050274229395563 10.916941480203555 2.0376000632994664 0 0 0
144 48 1 0.5897 1.4071072041419441 11.463339351185901 0.7805807250859207 0 0 0
149 50 1 0.5897 1.5933469297105944 7.189447464195174 4.901143680618163 0 0 0
131 44 1 0.5897 2.739938028328689 11.706587114148697 3.8525091149951005 0 0 0
140 47 1 0.5897 4.7518181392256835 10.342951085573699 0.853941541175195 0 0 0
621 207 1 0.5897 4.463184503201242 8.945754385206872 5.579044966555409 0 0 0
127 43 2 -1.1794 6.095282349801085 10.77944796434454 3.4667620030845017 0 0 0
168 56 1 0.5897 5.923528580476032 8.231043791595258 1.8047433010226142 0 0 0
145 49 2 -1.1794 4.539788775760057 12.012175572387704 0.7606584691958331 0 0 0
1574 525 1 0.5897 1.5261535951442475 9.414112048799241 0.2419507500244747 0 0 1
134 45 1 0.5897 1.5277854048624349 9.53279704379173 5.666980167450103 0 0 0
507 169 1 0.5897 4.784704722001024 6.3815541403912475 5.565574129134804 0 0 0
150 50 1 0.5897 1.6357268921552028 5.9208405933719455 5.726190634461196 0 0 0
1347 449 1 0.5897 4.408981577246347 0.2063980997859428 11.268332780679433 0 1 0
528 176 1 0.5897 5.874414541573644 2.2010055384819034 7.6411534198075595 0 0 0
527 176 1 0.5897 5.888312092273686 0.6933412552805404 7.505515467676915 0 0 0
494 165 1 0.5897 1.2649678738853773 1.8729429634563093 10.704746863748914 0 0 0
504 168 1 0.5897 1.5616600645784988 3.9104115969525064 6.748707099760529 0 0 0
501 167 1 0.5897 4.460136484275668 4.235718324516962 6.365281057484351 0 0 0
499 167 2 -1.1794 4.5840464529859855 3.2920744432499647 6.466854961667417 0 0 0
483 161 1 0.5897 4.340844862152067 2.097609971879404 10.538412580561483 0 0 0
492 164 1 0.5897 2.8728944848750393 3.9894552706218676 10.056472748809998 0 0 0
493 165 2 -1.1794 1.2555749607494162 2.8287415278783272 10.654862898779037 0 0 0
491 164 1 0.5897 2.894291022043651 4.728172047149826 8.735081914034545 0 0 0
485 162 1 0.5897 3.165875304249912 1.3679720633440282 8.545966640506613 0 0 0
481 161 2 -1.1794 4.337700587599463 1.3473296626658007 9.94400812715212 0 0 0
482 161 1 0.5897 5.1644685390767995 1.4160160899842469 9.46635492500046 0 0 0
502 168 2 -1.1794 1.5617534967661375 4.6910347389974945 7.302673277108522 0 0 0
500 167 1 0.5897 3.716863335407667 2.9598309914430194 6.699203543052018 0 0 0
490 164 2 -1.1794 3.395108820220053 4.604609283906328 9.541521082027922 0 0 0
503 168 1 0.5897 0.8735344205681078 4.527733446674563 7.947738427283174 0 0 0
498 166 1 0.5897 0.928681091309389 1.4314859172533791 7.7520752780896665 0 0 0
484 162 2 -1.1794 2.8131963782331644 1.4359871955973489 7.658592028156393 0 0 0
489 163 1 0.5897 5.15612953457341 4.673988289871049 9.442636339619227 0 0 0
486 162 1 0.5897 3.4009926392465166 0.9010718927350915 7.125022389811445 0 0 0
629 210 1 0.5897 2.1103596403109655 5.999908356769623 10.100786346443735 0 0 0
487 163 2 -1.1794 6.091802438297019 4.875623540770071 9.458465406544475 0 0 0
496 166 2 -1.1794 -0.019629691750152375 1.5101960151622418 7.856550753595806 0 0 0
578 193 1 0.5897 0.18996375756970454 3.651404081392125 9.573932381123722 1 0 0
505 169 2 -1.1794 4.676861495941097 5.9369597886278545 6.406458736800601 0 0 0
698 233 1 0.5897 0.14426543538983233 11.36432616726411 9.825638913994572 1 0 0
699 233 1 0.5897 0.26749524178489986 10.710763881839334 8.465502711403738 1 0 0
748 250 2 -1.1794 1.6919000840817588 12.2655845322996 10.681330252843189 0 0 0
602 201 1 0.5897 4.847226132296255 6.758228961188236 10.59928102481646 0 0 0
620 207 1 0.5897 5.162344511344567 8.923705573308645 6.921841781766798 0 0 0
613 205 2 -1.1794 1.5196107710158706 9.076248057436782 10.635212783923985 0 0 0
611 204 1 0.5897 4.081903505037572 10.58091647407383 9.075275426747798 0 0 0
616 206 2 -1.1794 0.20895244491845955 7.676251285834911 7.69764822320057 0 0 0
625 209 2 -1.1794 4.766006252293228 11.996724060342345 6.1789348961818025 0 0 0
628 210 2 -1.1794 1.3052550753731846 6.2908493933733025 10.529209862835858 0 0 0
630 210 1 0.5897 1.3912295553851701 7.242750255974976 10.580434646902608 0 0 0
605 202 1 0.5897 3.4357619983651073 8.263636204238711 7.436175046760688 0 0 0
604 202 2 -1.1794 2.9930162355743364 7.571802463614892 7.927713340408044 0 0 0
603 201 1 0.5897 4.225242089369227 7.393060329186914 9.37355653132675 0 0 0
624 208 1 0.5897 1.3552723371164193 11.454909454086975 6.404707385032245 0 0 0
610 204 2 -1.1794 3.1301607954137176 10.51693525375478 8.994659367050039 0 0 0
648 216 1 0.5897 5.780230097903478 6.984701770698049 7.332553516828479 0 0 0
622 208 2 -1.1794 1.220733050053989 10.70968583680192 6.990197213069735 0 0 0
612 204 1 0.5897 2.7971123974062664 11.275299973914043 9.474461667174294 0 0 0
626 209 1 0.5897 4.6655605352113225 11.046214070438218 6.229689655375056 0 0 0
623 208 1 0.5897 2.0072745265159737 10.687745282287928 7.535440667650743 0 0 0
606 202 1 0.5897 2.068414200729603 7.669375170357597 7.699679365222018 0 0 0
647 216 1 0.5897 5.98946273979775 7.620224451691935 8.690728362942547 0 0 0
615 205 1 0.5897 0.7348942235482553 9.509415502313491 10.299148813245804 0 0 0
614 205 1 0.5897 2.215386784022827 9.338423472452352 10.032252248483946 0 0 0
607 203 2 -1.1794 5.865656545140005 10.859201654486688 9.049443461097313 0 0 0
619 207 2 -1.1794 4.483526146503194 9.38515630164176 6.429274172882873 0 0 0
506 169 1 0.5897 3.9210848350701806 6.364815693523292 6.809069925849787 0 0 0
601 201 2 -1.1794 4.867733439320614 7.552265751012953 10.065138229130556 0 0 0
1101 367 1 0.5897 4.6243187620695005 8.74837157396409 11.374981741145023 0 0 0
627 209 1 0.5897 5.346791938495275 12.215914002851813 6.9076722301545646 0 0 0
961 321 2 -1.1794 4.363078846874018 1.5516145177313516 15.555693454455355 0 0 0
962 321 1 0.5897 5.063285207117311 1.4366855335600761 14.913102720536402 0 0 0
963 321 1 0.5897 4.53809512212017 0.8877686195410048 16.22275065574958 0 0 0
964 322 2 -1.1794 2.6838537409841434 1.4753353346858962 13.307745603240543 0 0 0
965 322 1 0.5897 2.958419602035309 1.3937733316492775 14.22120247987155 0 0 0
966 322 1 0.5897 1.7362179606250405 1.3414318932873703 13.329099695790438 0 0 0
970 324 2 -1.1794 3.1929154173161653 4.709803140676375 14.95220024073348 0 0 0
971 324 1 0.5897 4.138500489361251 4.589447379316496 15.04043439446047 0 0 0
972 324 1 0.5897 2.812378603803328 3.9420012327819545 15.378708383138989 0 0 0
973 325 2 -1.1794 1.520154407798425 2.8423980404786398 16.439297532185364 0 0 0
975 325 1 0.5897 0.9282238286672846 3.3299529089697395 15.866362353953974 0 0 0
982 328 2 -1.1794 1.338218492199715 4.669334889860816 12.830239133797734 0 0 0
983 328 1 0.5897 1.4334356078404171 5.355654431992564 12.169796086385073 0 0 0
984 328 1 0.5897 2.090931648180788 4.787729426240506 13.409740614809312 0 0 0
980 327 1 0.5897 3.715366680577285 2.8067652015576017 12.460193267401076 0 0 0
981 327 1 0.5897 5.221526922753869 2.960559539741097 12.44773526821999 0 0 0
979 327 2 -1.1794 4.422743938896468 3.297726460431909 12.041969748155166 0 0 0
990 330 1 0.5897 1.5991868374644127 0.9893615477465321 16.410293534353535 0 0 0
986 329 1 0.5897 4.574673357537059 5.0389101461739925 12.15913857877541 0 0 0
1346 449 1 0.5897 3.8373107481039046 0.2628663297544905 12.669197776076732 0 1 0
1109 370 1 0.5897 0.6556234110246606 5.937325117903709 15.99131435004145 0 0 0
1110 370 1 0.5897 2.166844624632313 5.993503385630327 15.917945777509214 0 0 0
985 329 2 -1.1794 4.825221947692867 5.956858583513088 12.262803450283856 0 0 0
967 323 2 -1.1794 5.881446801988292 4.581905553709856 15.155740595042426 0 0 0
988 330 2 -1.1794 1.522385908473143 0.04776545993801938 16.256555307540424 0 0 0
1058 353 1 0.5897 0.014958453626647633 4.769077527476769 14.280357559361535 1 0 0
495 165 1 0.5897 1.174631956560816 3.1157181888160967 11.564539504949147 0 0 0
1460 487 1 0.5897 4.385900142594702 2.8078487415039715 16.922304829794506 0 0 0
1008 336 1 0.5897 5.853114516642067 0.9556339569066195 12.980358269838197 0 0 0
1087 363 2 -1.1794 5.895937804280608 10.623283517278626 15.084711792981333 0 0 0
1178 393 1 0.5897 0.1953452976175539 11.498824360982148 15.541547892928161 1 0 0
987 329 1 0.5897 4.184556054876122 6.312343893685378 12.87889103533836 0 0 0
1105 369 2 -1.1794 4.521154855574191 12.096847917103258 12.214245958185433 0 0 0
1108 370 2 -1.1794 1.4150656830763118 6.389772024359096 16.358585392675145 0 0 0
1081 361 2 -1.1794 4.868309429524246 7.559790857649403 15.849037239782897 0 0 0
1082 361 1 0.5897 4.9309526639016035 8.348030202718608 16.388470132307745 0 0 0
1083 361 1 0.5897 4.572032136273069 6.878776252456747 16.452962119597977 0 0 0
1084 362 2 -1.1794 3.057005090858189 7.506344624963832 13.695611990836884 0 0 0
1085 362 1 0.5897 3.5213862122272763 7.578738106175477 14.52960834756425 0 0 0
1086 362 1 0.5897 3.435668286048446 8.195246526106656 13.149439337274815 0 0 0
1089 363 1 0.5897 4.950180302749825 10.767399170274343 15.050457276002389 0 0 0
1090 364 2 -1.1794 3.1488457460205934 10.807202684745164 14.878628157164982 0 0 0
1091 364 1 0.5897 2.8155477381342267 11.582293253178426 15.330713210110515 0 0 0
1092 364 1 0.5897 2.7668358157356905 10.069443203781365 15.354052912548386 0 0 0
1095 365 1 0.5897 0.8206457695562468 9.596529202219976 16.184188386785692 0 0 0
1097 366 1 0.5897 1.0666661497406076 7.531517439237834 13.525325375999826 0 0 0
1099 367 2 -1.1794 4.56572910823041 9.350992030208324 12.116422017469121 0 0 0
1102 368 2 -1.1794 1.353719787686689 10.62766549928676 12.818887652172753 0 0 0
1104 368 1 0.5897 2.1015802928862306 10.619126057429657 13.416427314815847 0 0 0
1093 365 2 -1.1794 1.5865884431190982 9.193855447615624 16.59351878438879 0 0 0
1103 368 1 0.5897 1.5745167833456202 9.980770140273117 12.148760750911507 0 0 0
1100 367 1 0.5897 5.254108389430148 9.062062238642657 12.715632188007657 0 0 0
1094 365 1 0.5897 1.4512264780482331 8.252889599684154 16.482171232779514 0 0 0
1107 369 1 0.5897 4.556175174462558 11.162939336704834 12.007529340239591 0 0 0
1179 393 1 0.5897 0.2110411257815211 10.705894296407587 14.251881470475631 1 0 0
1127 376 1 0.5897 6.089775891872086 7.908018584700127 14.44517710705194 0 0 0
1128 376 1 0.5897 6.111221932035817 7.197829661641478 13.108229552059203 0 0 0
750 250 1 0.5897 1.4604279888464549 11.887102696008016 11.529605061961195 0 0 0
1096 366 2 -1.1794 0.14180846085537518 7.75216172754496 13.41419761822337 0 0 0
1447 483 2 -1.1794 5.944514589414747 4.515671406504152 20.57323694028559 0 0 0
1487 496 1 0.5897 5.963910565333223 1.5593791160272246 19.859342276279115 0 0 0
1488 496 1 0.5897 5.856450803541909 0.8354492792104851 18.533963022763743 0 0 0
1456 486 2 -1.1794 0.09165608326352431 1.6423650000896555 19.24885117783427 0 0 0
1539 513 1 0.5897 0.1663183085530876 5.099699726624516 21.253904197201194 1 0 0
974 325 1 0.5897 1.5766599862390263 3.373260662350332 17.23386773458796 0 0 0
1454 485 1 0.5897 2.1282263006898394 3.0725645931044796 21.432176659633278 0 0 0
1464 488 1 0.5897 0.8565039420638314 4.562538742302307 19.17208370922797 0 0 0
1443 481 1 0.5897 4.661542942279009 2.1588752505942392 21.885187853702675 0 0 0
1450 484 2 -1.1794 3.1797177586246366 4.564791620862267 20.81680634942881 0 0 0
1469 490 1 0.5897 1.473242109571344 0.8484348174934897 22.0709658997905 0 0 0
1442 481 1 0.5897 4.040754643303505 1.3695572971223473 20.752130093206297 0 0 0
1453 485 2 -1.1794 1.4932182395809757 2.6272581160038877 21.99326789793831 0 0 0
1444 482 2 -1.1794 2.8646054921854924 1.3722910040045622 19.297411889405716 0 0 0
1463 488 1 0.5897 1.4901020283206692 5.421268353503625 18.098165387463602 0 0 0
1452 484 1 0.5897 3.017510141423822 4.549383882506099 19.87346243213115 0 0 0
1441 481 2 -1.1794 4.818644122235054 1.4111872341927427 21.308525873265538 0 0 0
1451 484 1 0.5897 4.128060525384531 4.668902676717432 20.89559984547732 0 0 0
1445 482 1 0.5897 1.9075204568363715 1.37563184442185 19.316953980111627 0 0 0
1446 482 1 0.5897 3.094385705866816 2.062908678229508 18.675698381761244 0 0 0
1461 487 1 0.5897 5.212772941724316 2.7773274976122564 18.1902768703347 0 0 0
1459 487 2 -1.1794 4.438561637522324 3.184045923154855 17.80099625720505 0 0 0
1462 488 2 -1.1794 1.569373093811687 4.5723619336347605 18.53321979269227 0 0 0
1466 489 1 0.5897 4.384327710152763 4.95673893468561 17.814985001013156 0 0 0
1465 489 2 -1.1794 4.318378268906672 5.900543543229022 17.959978263542737 0 0 0
1538 513 1 0.5897 0.303416848532761 3.6129420762194364 21.00407612075761 1 0 0
1590 530 1 0.5897 2.1096900814540005 5.908701575705715 21.704775613237423 0 0 0
1467 489 1 0.5897 5.128782684878648 6.130699880510019 18.414590959987578 0 0 0
386 129 1 0.5897 4.862799849374311 0.21056737554479846 22.670181077562745 0 1 -1
1585 529 2 -1.1794 4.55654214965544 12.149537471203168 17.62550500319459 0 0 0
1608 536 1 0.5897 5.929932608085339 7.474082931497511 20.054252307624864 0 0 0
1581 527 1 0.5897 5.581364403729232 9.06208137732243 18.366388648011714 0 0 0
1710 570 1 0.5897 2.260740489740625 12.007724542510203 21.64757704459479 0 0 0
1571 524 1 0.5897 2.9165311535775515 10.825022324243289 19.828032221410837 0 0 0
141 47 1 0.5897 4.8425222076559065 9.106946927058178 22.760258674290114 0 0 -1
1563 521 1 0.5897 4.008954424305862 8.000277443921641 20.745848520682983 0 0 0
1567 523 2 -1.1794 6.090893168752569 10.993253741151893 20.625095292130872 0 0 0
1709 570 1 0.5897 0.747217653252093 12.045169873178706 21.634441759833194 0 0 0
1587 529 1 0.5897 4.528853231029777 11.192999302473599 17.645386365418 0 0 0
1230 410 1 0.5897 1.532353214909957 12.329644820959297 17.207005269545526 0 0 0
1589 530 1 0.5897 1.5217943758153498 7.262569019044195 22.041228287906577 0 0 0
1579 527 2 -1.1794 4.792744591862657 9.422083169046168 17.9603695740009 0 0 0
1658 553 1 0.5897 0.06651845802738612 9.832565811440222 21.110631278344023 1 0 0
1572 524 1 0.5897 4.259110464653996 10.98101086073326 20.51030057325015 0 0 0
1584 528 1 0.5897 1.5837482493300676 10.242865751140178 18.033141477808897 0 0 0
1566 522 1 0.5897 3.2665669480216737 7.0935438563887505 18.831201906879052 0 0 0
1564 522 2 -1.1794 2.959034678795956 7.88457064420828 19.273834799984158 0 0 0
1588 530 2 -1.1794 1.3838817372340388 6.324264992846244 22.17047107873725 0 0 0
1565 522 1 0.5897 2.028460069649537 7.935604107577074 19.05512736295666 0 0 0
1570 524 2 -1.1794 3.3225870936570714 10.900741735352245 20.691643086190943 0 0 0
1582 528 2 -1.1794 1.6519433413817963 10.99360629139732 18.623052348422412 0 0 0
1580 527 1 0.5897 4.069690860782289 9.005886391875551 18.42977119531063 0 0 0
1562 521 1 0.5897 4.6140964995352185 7.282210989292302 21.93345735670367 0 0 0
1573 525 2 -1.1794 1.5652264516872612 9.03240829895806 22.140703987475895 0 0 0
1583 528 1 0.5897 0.8739827971855049 10.934489261858099 19.177762369590866 0 0 0
1561 521 2 -1.1794 4.770182933859783 8.005578259303768 21.326300539608532 0 0 0
1575 525 1 0.5897 2.3351539929897305 9.434230490737637 21.738070064234876 0 0 0
1576 526 2 -1.1794 0.1642050405233475 7.504552439504749 19.1688197319786 0 0 0
1708 570 2 -1.1794 1.5079302876570677 12.355966113836335 22.125469350380953 0 0 0
241 81 2 -1.1794 4.640340912952507 14.034249352108024 4.243167647886604 0 0 0
242 81 1 0.5897 4.65199425918998 13.23580908231034 4.770982686013044 0 0 0
243 81 1 0.5897 3.8064975518848896 13.99985203970878 3.7741916500068093 0 0 0
244 82 2 -1.1794 2.8263700510176557 13.750330317215775 2.224400782330189 0 0 0
245 82 1 0.5897 1.8714185627961968 13.816825697409541 2.217384298940082 0 0 0
246 82 1 0.5897 3.122293605181841 14.488447925564495 1.691615984273933 0 0 0
250 84 2 -1.1794 3.329353833049825 17.11944034140126 3.891755013675442 0 0 0
251 84 1 0.5897 2.9509531476005932 17.387019217231174 3.0541188275654765 0 0 0
252 84 1 0.5897 4.272263383655164 17.086883782766062 3.7296765963623697 0 0 0
253 85 2 -1.1794 1.4594383813927185 15.319722406088903 4.798017792182452 0 0 0
255 85 1 0.5897 2.2621432085780597 15.682744524998494 4.423515745543607 0 0 0
259 87 2 -1.1794 4.338185328866782 15.761285834065019 0.7630538198139443 0 0 0
262 88 2 -1.1794 1.6561146577942287 16.981315546147822 1.4911286969651212 0 0 0
263 88 1 0.5897 1.8284844588102207 16.20310456017857 0.9611177007210483 0 0 0
264 88 1 0.5897 1.60857159249947 17.697283717389237 0.8575630045127959 0 0 0
269 90 1 0.5897 1.548312667530012 13.559100756946888 5.051985712391708 0 0 0
254 85 1 0.5897 0.7537006223290871 15.79735128879788 4.361950475300752 0 0 0
260 87 1 0.5897 4.256199964653662 16.700414217517935 0.5973293474939004 0 0 0
265 89 2 -1.1794 4.611163935163497 18.522425358226695 0.5679676022217351 0 0 0
389 130 1 0.5897 2.242664917463625 18.49258425254927 4.708538821846894 0 0 0
247 83 2 -1.1794 6.081391706749583 17.056971433874004 3.665661731084793 0 0 0
256 86 2 -1.1794 0.10403617265763337 13.966501904988668 2.2024925960654387 0 0 0
288 96 1 0.5897 5.8049489163444505 14.724410252717275 1.625123746704533 0 0 0
268 90 2 -1.1794 1.669581190947353 12.610407491290678 5.0894996249516655 0 0 0
146 49 1 0.5897 3.8130045652298747 12.470185624008794 1.1829893349198475 0 0 0
740 247 1 0.5897 4.683232783556744 15.252659355975402 5.614480887983822 0 0 0
147 49 1 0.5897 5.324940794420868 12.431113624345766 1.1133497377747283 0 0 0
339 113 1 0.5897 0.04471279205283975 17.68277533631005 3.9635329364870504 1 0 0
338 113 1 0.5897 0.36289740033597684 16.959844401837273 2.6718702711339306 1 0 0
287 96 1 0.5897 5.847045773880583 13.841359552699842 2.854199057847139 0 0 0
407 136 1 0.5897 5.969463245626712 19.479073465322486 1.5813489472010167 0 0 0
388 130 2 -1.1794 1.4020456448730025 18.83357537837226 5.014246213039435 0 0 0
376 126 2 -1.1794 0.09585249467287793 19.99491187925939 2.144699135763265 0 0 0
458 153 1 0.5897 0.42229065344204714 23.900994309923902 4.0803972899610566 1 0 0
267 89 1 0.5897 3.9187580794967705 19.02811555895829 0.9936373040168547 0 0 0
361 121 2 -1.1794 4.808351819303987 20.169527444394994 4.1999043623470085 0 0 0
362 121 1 0.5897 4.035207496374689 20.135400246233562 3.6364310444793575 0 0 0
364 122 2 -1.1794 2.84888341654891 20.005552164062333 2.2025874081542494 0 0 0
365 122 1 0.5897 3.1026145669206935 20.748865607656747 1.655454859287046 0 0 0
370 124 2 -1.1794 3.4674450981080773 23.259640013062793 3.2301044826637457 0 0 0
371 124 1 0.5897 4.417695063926157 23.144769853030734 3.214910883029501 0 0 0
372 124 1 0.5897 3.147732106439384 22.542766260815398 3.7779494011813664 0 0 0
373 125 2 -1.1794 1.5680209815371156 21.50954606159491 4.822736055936778 0 0 0
382 128 2 -1.1794 1.2628108422521203 23.191340476157684 1.3080205615408054 0 0 0
383 128 1 0.5897 2.0653766305184718 23.190789000468907 1.8298504067205887 0 0 0
375 125 1 0.5897 0.92390764328377 22.05628806485678 4.37271155797552 0 0 0
366 122 1 0.5897 1.8968687036899354 20.07484282074015 2.275190887051552 0 0 0
384 128 1 0.5897 1.3540075370352906 22.436402819198726 0.726646974139416 0 0 0
381 127 1 0.5897 5.4209365137183525 21.375517777525992 1.0921974378908437 0 0 0
379 127 2 -1.1794 4.641000762661078 21.733153655874492 0.6677324140441991 0 0 0
390 130 1 0.5897 1.508415066763546 19.78464026880593 4.997136186382653 0 0 0
363 121 1 0.5897 4.761194114859041 19.367962848628842 4.7209516224346615 0 0 0
380 127 1 0.5897 4.739821299358625 22.68207602849423 0.7446385501407385 0 0 0
408 136 1 0.5897 6.005597509141334 20.16505105687706 2.930570747263704 0 0 0
459 153 1 0.5897 0.26037738645383346 23.186467704189333 2.7554464438081236 1 0 0
374 125 1 0.5897 1.6571792589908612 21.907176587838126 5.68895189672715 0 0 0
30 10 1 0.5897 1.678360936871398 24.417461273415864 5.542142230988473 0 -1 0
385 129 2 -1.1794 4.743792561695058 24.45424862079799 0.6631211744432467 0 0 0
29 10 1 0.5897 2.4647598441007554 24.595811247274828 4.260671073044383 0 -1 0
861 287 1 0.5897 4.602671393424761 21.22364463651701 5.705251272086452 0 0 0
1221 407 1 0.5897 4.8136022273431465 15.189289946056679 11.31835284082813 0 0 0
727 243 2 -1.1794 5.913743496547158 17.035175764680872 9.214505712812644 0 0 0
1106 369 1 0.5897 4.490963667095104 12.5303886178813 11.361302954438067 0 0 0
768 256 1 0.5897 5.911770092735847 14.430010942948138 7.577368495016016 0 0 0
736 246 2 -1.1794 0.23111422657593322 14.279347572905358 7.84716034620585 0 0 0
818 273 1 0.5897 0.10590670777489994 16.773807659108 8.685324242888168 1 0 0
737 246 1 0.5897 1.135762482734336 13.967032512657 7.825963155574321 0 0 0
732 244 1 0.5897 2.756545705681764 16.29282125645358 9.755103597269853 0 0 0
725 242 1 0.5897 3.3342810202637123 14.468092048186447 7.2401375077409815 0 0 0
726 242 1 0.5897 3.1599661719688403 12.965555265010185 7.179742407133175 0 0 0
730 244 2 -1.1794 3.2171933459372264 17.028377826717342 9.351360474656811 0 0 0
728 243 1 0.5897 4.957759440598496 16.99758705907165 9.247465915548437 0 0 0
733 245 2 -1.1794 1.6931382688170342 15.015093947226415 10.611661165548382 0 0 0
724 242 2 -1.1794 2.887599366337105 13.739955793532268 7.672045312656287 0 0 0
742 248 2 -1.1794 1.310528077779881 16.978244822739732 7.145030100932586 0 0 0
721 241 2 -1.1794 4.497071798915623 13.932187659594405 10.05799493154521 0 0 0
743 248 1 0.5897 1.275842438478294 17.821643135227564 6.693725543449431 0 0 0
722 241 1 0.5897 3.682088542608886 13.966400859262977 9.556948136059615 0 0 0
731 244 1 0.5897 2.820297412434645 17.113407591517344 8.484364526128116 0 0 0
735 245 1 0.5897 0.8841650873451629 15.368538376447235 10.24151061326782 0 0 0
741 247 1 0.5897 4.591645182963321 16.601185342812208 6.296304894188812 0 0 0
744 248 1 0.5897 1.3993255398422793 16.333888585687276 6.442728281734624 0 0 0
739 247 2 -1.1794 4.635500007927355 15.662512702855915 6.478269657991086 0 0 0
723 241 1 0.5897 5.175753852893953 13.773531988920334 9.401766579434648 0 0 0
749 250 1 0.5897 1.6163817278228694 13.210796495581356 10.811736258524947 0 0 0
869 290 1 0.5897 0.7630015783457278 18.269256103326033 10.334833263168939 0 0 0
870 290 1 0.5897 2.2763428111919723 18.281037105501255 10.379463262377055 0 0 0
745 249 2 -1.1794 4.648678393055084 18.423903128276475 6.51251757100748 0 0 0
729 243 1 0.5897 6.141213718823194 17.811172827774136 9.726679783038923 0 0 0
850 284 2 -1.1794 3.2835877962837876 23.24725076414006 9.286521631812722 0 0 0
939 313 1 0.5897 0.3530958544129401 23.652658880906714 9.948820342487647 1 0 0
865 289 2 -1.1794 4.667848720022716 24.646074627991368 6.421964201443848 0 0 0
841 281 2 -1.1794 4.78345212801574 20.17031816773959 9.979721607817105 0 0 0
937 313 2 -1.1794 -0.011506604327543482 23.08588115033308 9.2689999736176 1 0 0
851 284 1 0.5897 4.194976004518941 23.499923852075664 9.434560547766504 0 0 0
853 285 2 -1.1794 1.614624319841008 21.480429259476793 10.74082580981634 0 0 0
843 281 1 0.5897 4.670662829588373 19.482973498070056 10.63631979583731 0 0 0
862 288 2 -1.1794 1.7253772285271134 23.224761127724445 7.00665229746607 0 0 0
866 289 1 0.5897 4.748135839140075 23.69495441756595 6.350860246804122 0 0 0
847 283 2 -1.1794 6.044789454984162 23.32352041575416 9.526657030179782 0 0 0
860 287 1 0.5897 3.8652710556383303 21.436936328672267 7.010295615615527 0 0 0
846 282 1 0.5897 1.826458352942516 19.993970781445103 7.895286001499494 0 0 0
747 249 1 0.5897 3.906861196071342 18.90546937185147 6.878800412325785 0 0 0
887 296 1 0.5897 5.846479342269832 20.799120155031137 7.316152844532797 0 0 0
746 249 1 0.5897 5.4193156402958405 18.83928019872622 6.899742337331192 0 0 0
845 282 1 0.5897 3.092510067314174 20.01472233600196 8.725374283441175 0 0 0
852 284 1 0.5897 3.17032887229773 22.446602623202498 9.798736067170529 0 0 0
855 285 1 0.5897 0.9670845250260951 21.80507920512293 10.114974670670074 0 0 0
864 288 1 0.5897 0.8470702134581516 23.069993169955374 7.354541342352572 0 0 0
868 290 2 -1.1794 1.5050647569875473 18.72334166240345 10.73421002973963 0 0 0
859 287 2 -1.1794 4.586154992639445 21.78144586279896 6.483018008490757 0 0 0
863 288 1 0.5897 2.274939133834497 23.33488062138585 7.782722123445415 0 0 0
854 285 1 0.5897 1.4196712345235656 20.547163213953855 10.825382106398429 0 0 0
842 281 1 0.5897 4.858412609264438 20.977789336447977 10.488236929472349 0 0 0
888 296 1 0.5897 5.975205614686014 20.02693275574363 8.612069637564495 0 0 0
510 170 1 0.5897 2.306047565204234 24.38530952380388 10.386543233545318 0 -1 0
844 282 2 -1.1794 2.7744078060650157 20.10882197241709 7.827374078044835 0 0 0
856 286 2 -1.1794 0.11626915706397287 20.00080287168867 7.695288099385186 0 0 0
508 170 2 -1.1794 1.5458402306652552 24.749955979072155 10.839855885579698 0 -1 0
1201 401 2 -1.1794 4.5192963511528115 13.951441276550069 15.60181617177569 0 0 0
1204 402 2 -1.1794 2.8911555396503847 14.036416895010724 13.407888357021415 0 0 0
1205 402 1 0.5897 3.2271455864233753 14.10807731505258 14.3014309292247 0 0 0
1206 402 1 0.5897 3.379587961611877 13.30736993698812 13.025562881032704 0 0 0
1210 404 2 -1.1794 3.3392272295245915 16.859339833349893 14.680999487727766 0 0 0
1211 404 1 0.5897 2.9456510851255233 17.58538832619262 15.164954981064925 0 0 0
1212 404 1 0.5897 4.28014417480664 16.953620743771022 14.829962320231107 0 0 0
1213 405 2 -1.1794 1.613578315077261 15.382280328556194 16.411717726949853 0 0 0
1214 405 1 0.5897 0.9094474862291303 15.86982502227139 15.98412170604078 0 0 0
1215 405 1 0.5897 2.417384277269462 15.746231059206213 16.040493590634767 0 0 0
1218 406 1 0.5897 1.2245954201265812 14.024151013218678 13.483694787449283 0 0 0
1222 408 2 -1.1794 1.5245001439310242 16.739639389320953 12.75054267757204 0 0 0
1223 408 1 0.5897 1.5694009656368613 17.52717366518069 12.208314961024996 0 0 0
1224 408 1 0.5897 2.2837082128112107 16.803635775336215 13.330136126205028 0 0 0
1229 410 1 0.5897 1.4068584672045121 13.546294698899217 16.31484605712116 0 0 0
1220 407 1 0.5897 4.2557070790417315 15.351542417459074 12.716508274764932 0 0 0
1202 401 1 0.5897 5.275857062835766 13.850578516344292 15.024008650629606 0 0 0
1203 401 1 0.5897 4.587912508876251 13.221173999961055 16.21684561989197 0 0 0