LAMMPS data file via write_data, version 30 Jul 2021, timestep = 27750000

1008 atoms
2 atom types
672 bonds
1 bond types
336 angles
1 angle types

-3.098685673777167 14.708684673327715 xlo xhi
-0.08456505969074257 22.66456405968881 ylo yhi
0.02522199523127533 19.204776004761595 zlo zhi
0.008262436336834565 -6.345705418206022 -0.005375460539631979 xy xz yz

Masses

1 1.008
2 15.999

Pair Coeffs # lj/cut/tip4p/long/omp

1 0 0
2 0.21084 3.1668

Bond Coeffs # harmonic/omp

1 450 0.9572

Angle Coeffs # harmonic/omp

1 55 104.52

Atoms # full

55 19 2 -1.1794 -0.435730035374184 4.129843840235741 3.6592350974368717 0 0 0
56 19 1 0.5897 -1.0974993817822 3.6642804569384384 3.1478557060008066 0 0 0
57 19 1 0.5897 0.31989487535270467 4.191103289871814 3.0748507917971106 0 0 0
121 41 2 -1.1794 -2.3071184550465107 2.626554283303379 2.2493391408599894 1 0 0
122 41 1 0.5897 -2.4018366145803807 2.0021837973948777 1.5300523677426594 1 0 0
21 7 1 0.5897 1.2420368194646407 2.4004796672580433 0.9888027040786354 0 0 0
31 11 2 -1.1794 1.5547524576300757 1.097807776004088 2.33016411937029 0 0 0
86 29 1 0.5897 -2.031666461100525 1.5992572635816318 3.9058139793862177 1 0 0
32 11 1 0.5897 1.2817559128473093 1.467483049303286 3.169798295288894 0 0 0
46 16 2 -1.1794 1.9243662551273735 4.660291839167558 2.3611469495013298 0 0 0
158 53 1 0.5897 -4.137080290304585 4.45173183468985 4.4233090955287 1 0 0
70 24 2 -1.1794 4.084426160594741 0.46970198557023024 1.5230126829864217 0 0 0
669 223 1 0.5897 -5.141150572591109 1.715242996369926 9.160345505109678 1 0 0
71 24 1 0.5897 3.2969115866902685 0.77211933747091 1.975243419134494 0 0 0
482 161 1 0.5897 -0.9660651395192557 0.23155639016936602 0.895171528476967 1 1 0
123 41 1 0.5897 -3.2008850366661656 2.9121295115514894 2.43845706452635 1 0 0
602 201 1 0.5897 -0.18768389487997128 5.423727938896037 0.3959329182995445 1 0 1
54 18 1 0.5897 3.0550668172693367 3.4736435677928226 3.0632048610925047 0 0 0
44 15 1 0.5897 -0.24762046424288053 5.054482078463398 8.11309341208811 0 0 0
522 174 1 0.5897 2.4027620017972895 5.283442447244357 9.253618283496271 0 0 0
401 134 1 0.5897 2.738947861574501 0.08306711635607508 8.871852670615871 0 1 0
52 18 2 -1.1794 3.6543288003415615 2.951901868232565 3.596940599509396 0 0 0
5 2 1 0.5897 3.410242487061031 0.13924716004918267 5.006820253680792 0 0 0
33 11 1 0.5897 0.8185875549486115 0.5495945889525943 2.0586049157918693 0 0 0
98 33 1 0.5897 -3.8827976131350117 4.852292608616168 8.8197313810499 1 0 0
124 42 2 -1.1794 -4.940316030359826 2.333580200805247 7.456573241791161 1 0 0
6 2 1 0.5897 3.633420280256936 1.5873129052433301 4.625366913647736 0 0 0
159 53 1 0.5897 -3.106001141419773 4.276270879026289 5.517784384436423 1 0 0
87 29 1 0.5897 -3.210169142007726 1.1552604803045021 4.746064497456534 1 0 0
85 29 2 -1.1794 -2.262372106956705 1.2845271864205259 4.779913799362018 1 0 0
45 15 1 0.5897 0.7310265630498143 4.449667394800277 7.129160823514036 0 0 0
78 26 1 0.5897 0.3444620912009011 2.876929155545527 4.709326391647614 0 0 0
76 26 2 -1.1794 0.9263428457057739 2.119990510080572 4.777490114804868 0 0 0
59 20 1 0.5897 1.941076194910293 3.2844220053221562 5.6632289200578825 0 0 0
43 15 2 -1.1794 -0.1881259596326692 4.698220656161976 7.226686746090491 0 0 0
60 20 1 0.5897 3.0189956791025025 3.478867812855377 6.708232800369394 0 0 0
34 12 2 -1.1794 0.6195181251644897 1.3056383613347893 7.395986301183788 0 0 0
35 12 1 0.5897 0.6621704408220732 1.8696270695568897 8.168172971767682 0 0 0
36 12 1 0.5897 -0.2021360565965984 0.8246820093234188 7.495157333158081 0 0 0
4 2 2 -1.1794 3.898594485996269 0.9223531789585708 5.260842357120111 0 0 0
67 23 2 -1.1794 -1.7708974223625291 0.36844860135178453 8.038280780273082 0 0 0
157 53 2 -1.1794 -3.4980503804145067 4.936220436313788 4.945901588281698 1 0 0
58 20 2 -1.1794 2.308483882125479 3.9369827901183037 6.259357079486668 0 0 0
101 34 1 0.5897 -2.32667906058524 4.340280724005153 0.20711350135575182 1 0 0
47 16 1 0.5897 2.0877089985265602 5.183584007881855 1.5763850781354656 0 0 0
135 45 1 0.5897 -1.6201187006901572 3.686930356689584 7.03661871394213 1 0 0
126 42 1 0.5897 -4.065593045995488 2.7016893038824703 7.331695845863391 1 0 0
77 26 1 0.5897 0.7772050941868613 1.7812514236060732 5.660293455124435 0 0 0
134 45 1 0.5897 -2.1465618795106387 2.483964661961437 6.283226825824581 1 0 0
133 45 2 -1.1794 -2.420757896726254 3.1900441350673376 6.8684008018929665 1 0 0
69 23 1 0.5897 -2.015880834458207 1.0715188511424392 8.639801570408018 0 0 0
53 18 1 0.5897 4.444361567282835 2.8723859899860673 3.062426116292525 0 0 0
402 134 1 0.5897 1.589605684024864 -0.038234472794116 7.894110388943706 0 1 0
527 176 1 0.5897 4.26282673578863 2.0180218119792364 0.4137749437014497 0 0 1
48 16 1 0.5897 2.0446523180914182 5.272457027570884 3.0870704277012924 0 0 0
68 23 1 0.5897 -2.6043394209575768 -0.013922044152773441 7.76381504521272 0 0 0
114 38 1 0.5897 -3.0938566162797394 5.464924047967501 1.8980393665891955 1 0 0
16 6 2 -1.1794 5.49442038481738 4.930060535954844 0.4020540466883026 0 0 0
18 6 1 0.5897 4.951717598678275 4.1536940894279075 0.2642121082713518 0 0 0
606 202 1 0.5897 -5.865178557249552 4.342717518198822 9.598548931286656 1 0 0
19 7 2 -1.1794 1.3112455994502321 2.628854579041751 0.06179415490870229 0 0 0
629 210 1 0.5897 -8.087852396106507 3.194125524996708 16.80218518076795 1 0 0
626 209 1 0.5897 -5.685865036555483 2.0976339162710915 12.770596153278882 1 0 0
23 8 1 0.5897 0.9966523029763659 2.1239138848858996 10.286205780195134 0 0 0
986 329 1 0.5897 -4.211195091669941 0.12142321748223181 10.943505157498114 1 1 0
536 179 1 0.5897 -1.9055363730447086 1.6704243690769007 13.09607531500743 0 0 0
524 175 1 0.5897 -2.691390746326913 3.207527997167549 9.927648911287905 0 0 0
576 192 1 0.5897 0.13944682395486607 0.7366234295065434 11.83310693917983 0 0 0
628 210 2 -1.1794 -7.596235886919654 2.3732573989894257 16.828412282908467 1 0 0
535 179 2 -1.1794 -1.7085962677209858 1.156125398515598 12.313209854284105 0 0 0
663 221 1 0.5897 -7.4069795065055475 4.66768254849335 13.92876678208558 1 0 0
537 179 1 0.5897 -1.9030784291578895 1.7449756300257346 11.583988700697253 0 0 0
561 187 1 0.5897 -3.116187086944416 3.688835205081351 13.729159445287115 0 0 0
630 210 1 0.5897 -7.862984229040006 1.9083456352392898 16.035390635932217 1 0 0
164 55 1 0.5897 -8.219878581163924 1.5965340659513987 18.3318073221929 1 0 -1
627 209 1 0.5897 -6.571769071072853 3.168775252508791 12.170833460238494 1 0 0
557 186 1 0.5897 0.7513893061862893 2.763580954660479 13.639779551930902 0 0 0
558 186 1 0.5897 0.1641594768488952 3.7108308495920386 12.615129114262828 0 0 0
559 187 2 -1.1794 -3.6526857755360735 4.297967050478153 13.221857124843659 0 0 0
560 187 1 0.5897 -4.428828226058076 3.7916600715080544 12.982120484905312 0 0 0
625 209 2 -1.1794 -5.693566753802132 2.7926460712446803 12.11236538981437 1 0 0
668 223 1 0.5897 -5.367281149775297 1.8206315490724219 10.653557007508828 1 0 0
556 186 2 -1.1794 0.9825281388977425 3.488645773664415 13.059051279916574 0 0 0
580 194 2 -1.1794 -2.0601704172686963 2.648292667874175 14.707153791585869 0 0 0
552 184 1 0.5897 -2.123421503441681 4.547327740375723 12.214071191889492 0 0 0
589 197 2 -1.1794 -5.461890386554289 1.0266207788642447 14.193061244927215 1 0 0
550 184 2 -1.1794 -1.2247168892757778 4.814992347672577 12.021946684475928 0 0 0
571 191 2 -1.1794 -5.302041237776649 0.16958620459507462 17.950598652769074 0 0 0
24 8 1 0.5897 1.0830175358856087 3.587106982123351 9.907026971036938 0 0 0
593 198 1 0.5897 -7.434631165057426 0.7376782555605093 14.392492623517574 1 0 0
582 194 1 0.5897 -1.3802720984081267 3.209984668017489 15.079253972661531 0 0 0
574 192 2 -1.1794 0.9943001851774049 0.5732584670173962 11.434742749555841 0 0 0
547 183 2 -1.1794 -3.1181949314744903 4.791034014272317 16.873216591713422 0 0 0
639 213 1 0.5897 -5.657172656278535 3.956955188288304 15.2860102003406 1 0 0
538 180 2 -1.1794 -2.9291559354143386 1.0129117753757897 16.80877616719455 0 0 0
540 180 1 0.5897 -3.822840767330688 0.7102797173623115 16.969923762323944 0 0 0
165 55 1 0.5897 -9.205412766278513 0.5235794577434464 18.743647580137107 1 0 -1
539 180 1 0.5897 -2.8061219600712946 1.736148400394242 17.423581865524625 0 0 0
638 213 1 0.5897 -6.012541874367976 2.8624303789785692 16.269882688959676 1 0 0
549 183 1 0.5897 -3.738990404946204 4.13136900060607 16.563867038512214 0 0 0
562 188 2 -1.1794 -0.6089928450709294 4.385471507572438 16.224013264147324 0 0 0
548 183 1 0.5897 -3.237324270211685 5.530854351328319 16.277543809840083 0 0 0
564 188 1 0.5897 -1.45253265409983 4.585423691013462 16.629744918921304 0 0 0
22 8 2 -1.1794 0.5925063332611069 2.7855644289186734 9.724809138553432 0 0 0
520 174 2 -1.1794 2.4867819725701317 4.614686650881204 9.933366582696765 0 0 0
637 213 2 -1.1794 -5.279102047844468 3.2244136882335237 15.772554779973163 1 0 0
526 176 2 -1.1794 -2.3466806513097023 2.67230144285891 18.951782501862176 0 0 0
581 194 1 0.5897 -2.310556205620644 2.0666796841942334 15.425072386574623 0 0 0
590 197 1 0.5897 -5.25277733717381 1.7744876037688293 14.752680742403099 1 0 0
563 188 1 0.5897 -0.46904076664539485 5.096328953620641 15.598336408188295 0 0 0
603 201 1 0.5897 -6.130355115986454 4.012750996255088 19.183460979426243 1 0 0
20 7 1 0.5897 -5.211771240751022 1.8045326711083567 18.778645693389862 0 0 -1
523 175 2 -1.1794 -2.081468012864558 2.4746647582112606 10.011845981502102 0 0 0
661 221 2 -1.1794 -6.738558896516703 5.188819024461287 14.37356175459336 1 0 0
508 170 2 -1.1794 0.9332420178198744 1.2291265868010197 14.645423756267872 0 0 0
525 175 1 0.5897 -1.236532300640762 2.833383564739397 9.740442175952817 0 0 0
667 223 2 -1.1794 -5.333461540301229 1.1881362510429232 9.935937424394009 1 0 0
528 176 1 0.5897 -3.2902413561968107 2.768401931420979 19.080652512572954 0 0 0
591 197 1 0.5897 -4.737994593354204 0.4153398071267359 14.32899035952157 1 0 0
587 196 1 0.5897 -0.9145786296647631 5.492348948309348 10.235219678493854 0 0 0
84 28 1 0.5897 -3.5723402317608333 5.459174638519706 18.49164063206429 0 0 -1
99 33 1 0.5897 -3.7239182700947904 5.20422767492318 10.283521481869357 1 0 0
551 184 1 0.5897 -1.0030255875429193 5.430455289829089 12.720689029759516 0 0 0
601 201 2 -1.1794 -6.738429108210299 4.716632359348602 18.957632751487694 1 0 0
97 33 2 -1.1794 -3.862755741647809 4.4630165574261325 9.694012208671243 1 0 0
163 55 2 -1.1794 -8.558200551892291 1.1332544700794986 19.09811318134554 1 0 -1
289 97 2 -1.1794 -2.769583728181261 10.046770380230154 2.4693944411846402 1 0 0
332 111 1 0.5897 -2.206381969139653 9.430506211534276 0.7679330102947817 1 0 0
255 85 1 0.5897 -2.237400034233606 9.012817513381481 3.932671089459355 1 0 0
147 49 1 0.5897 -0.7898258196938532 7.483752553148097 0.9959273107840653 1 0 0
146 49 1 0.5897 -1.1056805819712165 6.57810860001061 2.167369170534461 1 0 0
145 49 2 -1.1794 -0.3809479584746378 6.889242236120696 1.624926827173377 1 0 0
174 58 1 0.5897 3.507954215814956 9.101177025825216 4.534426687298585 0 0 0
112 38 2 -1.1794 -2.9169712956757 6.15999232801795 2.531903737602881 1 0 0
303 101 1 0.5897 -1.6363245963540027 11.086055487582675 7.048119779079146 1 0 0
228 76 1 0.5897 1.6817135468905242 11.26202166198174 6.014731666104493 0 0 0
172 58 2 -1.1794 3.7348667543864824 8.441915321542055 5.190331174453791 0 0 0
221 74 1 0.5897 4.37595020756858 10.48351953380941 3.0628968157901357 0 0 0
201 67 1 0.5897 2.2205198777236204 8.54737847534163 2.461085932388631 0 0 0
188 63 1 0.5897 0.8215817996343504 9.820027338988453 0.9344437682459847 0 0 0
200 67 1 0.5897 0.7609878372667711 8.192523965836822 2.2723322899812852 0 0 0
8 3 1 0.5897 -0.5416622237654747 6.2731769610006465 5.829184084243921 0 0 0
199 67 2 -1.1794 1.3398004524088307 8.920110388081062 2.500057725024434 0 0 0
239 80 1 0.5897 3.728740615493863 8.880265810556654 1.1376315717254957 0 0 0
238 80 2 -1.1794 3.81324066404959 8.076081668372968 1.6499843285825362 0 0 0
173 58 1 0.5897 3.1726958541096435 7.695013485434751 4.984477439099198 0 0 0
10 4 2 -1.1794 2.183304733546758 6.3172402763307 4.604932757321221 0 0 0
240 80 1 0.5897 3.580886622871928 7.376776708474155 1.039106279961376 0 0 0
245 82 1 0.5897 1.0570418437463545 9.572199774338037 4.268949962267379 0 0 0
110 37 1 0.5897 -3.893981760769228 5.952045870093076 6.421455498650725 1 0 0
291 97 1 0.5897 -3.6118129938657155 10.456699916297081 2.6662000258448697 1 0 0
222 74 1 0.5897 3.0217438250192385 11.148739133062808 2.939445618161218 0 0 0
12 4 1 0.5897 1.2519218268397907 6.474018997966726 4.760143520694022 0 0 0
189 63 1 0.5897 1.7639050688335631 10.613286061189886 0.05413156596021 0 0 0
187 63 2 -1.1794 0.8370646541751827 10.410907553649569 0.18146359364495285 0 0 0
301 101 2 -1.1794 -2.4138705891584347 10.698457053239027 6.646387651372128 1 0 0
837 279 1 0.5897 -5.618685020301415 8.011891909064317 9.20860589684093 1 0 0
9 3 1 0.5897 -0.518832656044832 5.700838309301793 4.427872492581186 0 0 0
254 85 1 0.5897 -1.7320777442682462 7.851073786695161 4.761572858411096 1 0 0
253 85 2 -1.1794 -2.255330185489351 8.65054042948813 4.818538505109845 1 0 0
302 101 1 0.5897 -2.0726859503681125 9.999461671922822 6.0885776868653325 1 0 0
244 82 2 -1.1794 0.6982594698429274 10.03278462927122 5.027435969319198 0 0 0
220 74 2 -1.1794 3.5776128466917925 10.672245324405754 3.556046123958609 0 0 0
294 98 1 0.5897 -4.904372652013375 9.744608232705676 8.433123795814215 1 0 0
109 37 2 -1.1794 -3.9210088568116523 6.251937376791198 7.330041254485829 1 0 0
7 3 2 -1.1794 -0.4861364230389178 6.5281256511857775 4.9081944574108425 0 0 0
64 22 2 -1.1794 2.3783856088451287 6.71171361553925 8.205947505861051 0 0 0
237 79 1 0.5897 -2.035472642930702 8.707440285520043 8.562084836884159 0 0 0
257 86 1 0.5897 -4.107191691276869 8.4533546086148 5.045965156950428 1 0 0
290 97 1 0.5897 -2.119159461755349 10.70416055183819 2.7164581871537297 1 0 0
292 98 2 -1.1794 -4.925216092988148 10.195760338789338 7.589113357515892 1 0 0
191 64 1 0.5897 0.7961712586011624 9.543449648396797 8.836478201049754 0 0 0
293 98 1 0.5897 -4.0055450933885535 10.364311427769685 7.384251892887155 1 0 0
202 68 2 -1.1794 0.6040112495012244 8.40928272130502 7.2399208050172605 0 0 0
203 68 1 0.5897 -0.31427197082826197 8.214340242475314 7.426919853104412 0 0 0
204 68 1 0.5897 1.0899885235203026 7.697745618911806 7.656787383269492 0 0 0
246 82 1 0.5897 0.69157792127886 9.377408298858953 5.725150611355038 0 0 0
235 79 2 -1.1794 -1.8378917098518777 7.919814481180071 8.055349875841731 0 0 0
236 79 1 0.5897 -2.688064665537794 7.500810782361046 7.9217081434395835 0 0 0
111 37 1 0.5897 -4.833279810412475 6.504162247976005 7.472451324094582 1 0 0
11 4 1 0.5897 2.425521150844755 5.652790268797564 5.2500385476986455 0 0 0
588 196 1 0.5897 -1.068446083448523 6.58435302521822 9.197887993672834 0 0 0
113 38 1 0.5897 -3.0479870151486637 5.745848383909365 3.3849259645595184 1 0 0
224 75 1 0.5897 -0.3514392859774613 11.112253190354867 3.8934506265620485 0 0 0
65 22 1 0.5897 2.569103280696642 7.354552655268446 8.889009619978484 0 0 0
331 111 2 -1.1794 -1.8264845364959725 8.81718765562426 0.13891042022846362 1 0 0
258 86 1 0.5897 -4.977332058425466 9.203140719917602 6.032030621558215 1 0 0
190 64 2 -1.1794 0.4319040569488317 10.06252947091917 9.553433499158283 0 0 0
66 22 1 0.5897 3.2196733799516295 6.563720484037653 7.774087090033788 0 0 0
586 196 2 -1.1794 -0.44190436049666504 5.944831945222227 9.536514835643482 0 0 0
691 231 2 -1.1794 -2.3195704336563856 10.202255668875583 9.581319752716952 0 0 0
692 231 1 0.5897 -1.3668816096432028 10.291374195033514 9.556401586914808 0 0 0
696 232 1 0.5897 4.331491330039033 11.186381660083986 0.2361940549444334 0 0 1
694 232 2 -1.1794 3.70277511870382 10.47291365860774 0.12685332101597757 0 0 1
725 242 1 0.5897 1.0698565178990584 11.200269590425844 13.511883365556237 0 0 0
798 266 1 0.5897 -8.127597387155713 9.598107482939856 16.342278632629487 1 0 0
759 253 1 0.5897 -5.512716397059485 8.826357279720806 13.718068505126462 1 0 0
651 217 1 0.5897 -4.264186811088924 6.691971861535166 11.595355295459218 1 0 0
617 206 1 0.5897 -6.770825136885482 7.131569650553892 11.768767797232154 1 0 0
797 266 1 0.5897 -7.019013138398402 10.480768004784432 16.87501030508531 1 0 0
795 265 1 0.5897 -5.725061790142329 9.508198575485196 11.284439519821126 1 0 0
693 231 1 0.5897 -2.494180830978894 9.715933738307049 10.38715173915804 0 0 0
649 217 2 -1.1794 -3.46788985547177 6.678803841388064 11.064370232935818 1 0 0
650 217 1 0.5897 -2.8625609083861727 7.2597776474380895 11.525087049902407 1 0 0
742 248 2 -1.1794 0.7803828918192193 7.803717248650806 11.060230038710058 0 0 0
793 265 2 -1.1794 -5.904548426902841 9.83850519883882 12.164707190032473 1 0 0
743 248 1 0.5897 0.8877936403810387 8.646940848329871 10.619991732575501 0 0 0
744 248 1 0.5897 0.4540605530621056 7.216754807648155 10.378201159058083 0 0 0
741 247 1 0.5897 -5.512894095128743 8.815992572226188 18.09951297517609 0 0 0
835 279 2 -1.1794 -5.153259470130758 8.55432790172553 9.845253922635159 1 0 0
703 235 2 -1.1794 -1.7946148545404461 8.701882810961907 11.82724135327575 0 0 0
704 235 1 0.5897 -0.8488169341834415 8.575194058069291 11.752684464066842 0 0 0
705 235 1 0.5897 -1.9327134013613625 8.945349551305911 12.742585036209965 0 0 0
726 242 1 0.5897 -0.09875447101086454 10.962279986635384 12.579444302519313 0 0 0
706 236 2 -1.1794 -2.71244492776916 9.127971240728217 16.810369039944142 0 0 0
707 236 1 0.5897 -3.5978510564508523 8.81110511482099 16.988933070999465 0 0 0
750 250 1 0.5897 -2.7586526543379577 10.498671555696333 13.929931558543393 0 0 0
333 111 1 0.5897 -8.0212674318941 9.336929106888759 18.532437177692294 1 0 -1
615 205 1 0.5897 -7.0814994842659695 5.996961161801742 15.912827881530935 1 0 0
796 266 2 -1.1794 -7.920937950465841 10.210876722475536 17.04795560946979 1 0 0
748 250 2 -1.1794 -1.9977509134936078 10.008630363292067 14.241471964231552 0 0 0
514 172 2 -1.1794 -0.7917272613734214 6.443308363021272 14.26234131132832 0 0 0
708 236 1 0.5897 -2.144010630797129 8.39195512229614 17.037034004636503 0 0 0
749 250 1 0.5897 -2.3131869169153116 9.542024117038752 15.015511750730921 0 0 0
513 171 1 0.5897 -3.6422101676169776 5.909336301510022 14.17727019422539 0 0 0
512 171 1 0.5897 -3.9853452714503566 7.285531114329033 14.706560551012704 0 0 0
511 171 2 -1.1794 -3.3545904210870354 6.572332287013488 14.804893222901935 0 0 0
515 172 1 0.5897 -1.7197141512681702 6.586449937442068 14.448041153414064 0 0 0
516 172 1 0.5897 -0.3612369578761765 7.2454760242758605 14.558073067438249 0 0 0
724 242 2 -1.1794 0.6648216826164823 10.52985419642041 12.961710317163305 0 0 0
757 253 2 -1.1794 -5.334367500184685 8.440632660220556 14.575808291706068 1 0 0
695 232 1 0.5897 -2.500555458118434 10.157222432984883 18.412189316519722 0 0 0
758 253 1 0.5897 -5.302073180372482 9.188007496468405 15.172948839046805 1 0 0
616 206 2 -1.1794 -6.11833243301122 6.442943472092831 11.896147462910028 1 0 0
762 254 1 0.5897 -7.222773861968562 8.126036869473067 14.837734684068419 1 0 0
568 190 2 -1.1794 -1.0323622261618013 7.210225217399784 17.94130665379143 0 0 0
676 226 2 -1.1794 0.6943614225437891 8.59296879454305 14.873289233083348 0 0 0
83 28 1 0.5897 -4.3945709873852 6.705321625574618 18.742244424294974 0 0 -1
678 226 1 0.5897 0.47275189111363414 9.25360106905746 14.216950838055293 0 0 0
739 247 2 -1.1794 -5.10973239329024 8.050193105564716 17.690645085947942 0 0 0
613 205 2 -1.1794 -7.182078284827591 6.393306389684781 16.778263740045908 1 0 0
740 247 1 0.5897 -5.846158808764524 7.551069513075564 17.33743650550278 0 0 0
794 265 1 0.5897 -5.292680770896089 10.56596556763016 12.277399217982785 1 0 0
569 190 1 0.5897 -1.1984861915394998 6.4479947523687 18.496100706128665 0 0 0
805 269 2 -1.1794 -5.397196068184514 10.899294951878726 15.899791757440354 1 0 0
836 279 1 0.5897 -4.492256704220174 7.9717082260832814 10.219187380140125 1 0 0
570 190 1 0.5897 -0.21669651374511822 7.002272869459308 17.485670697905242 0 0 0
614 205 1 0.5897 -7.107506530131893 5.659515972694979 17.38846840324682 1 0 0
731 244 1 0.5897 -1.1016034146467284 11.116938294714327 15.37453250523726 0 0 0
618 206 1 0.5897 -6.278688666244909 5.825452053579606 11.182582790548093 1 0 0
662 221 1 0.5897 -6.376442548235874 5.750355661456126 13.688051649407807 1 0 0
82 28 2 -1.1794 -3.8284644982852 6.070881263578453 19.181838982706502 0 0 -1
192 64 1 0.5897 1.023029656999519 10.811324370102547 9.632011168335016 0 0 0
280 94 2 -1.1794 -3.4376638881040473 13.813236206795906 2.6780554398070686 1 0 0
771 257 1 0.5897 -0.35528860382137983 11.808339496931257 0.09240223030624688 1 0 1
340 114 2 -1.1794 3.629433090817818 16.251110725022066 5.1154654499066625 0 0 0
184 62 2 -1.1794 5.4492328405292785 12.547918759514015 0.2679461215110005 0 0 0
223 75 2 -1.1794 -0.7495187486865476 11.76705904669088 3.3198232722970333 0 0 0
232 78 2 -1.1794 2.004796626900811 14.548024239825796 8.20717559576995 0 0 0
499 167 2 -1.1794 -2.568697168925758 16.575619369331903 0.1484766665552077 1 0 0
277 93 2 -1.1794 -4.275383254195713 14.155048614607807 7.0624459510346895 1 0 0
326 109 1 0.5897 -2.994917746615877 11.88535334284661 5.520113271198081 1 0 0
226 76 2 -1.1794 2.0363180758141812 11.86629955430365 6.666878709087538 0 0 0
408 136 1 0.5897 3.8395440826101357 16.59324928967188 1.2680023491080552 0 0 0
281 94 1 0.5897 -3.398584274565048 13.46954326420618 3.5706145407021754 1 0 0
423 141 1 0.5897 -2.195247981134274 16.81031972360586 3.934977329751202 1 0 0
266 89 1 0.5897 -3.066722997177453 11.847691291855233 9.296539867928834 1 0 0
341 114 1 0.5897 3.1532962463178498 15.441060983442844 4.932727143056715 0 0 0
227 76 1 0.5897 1.2972773657418681 12.056588926215596 7.244613019299551 0 0 0
407 136 1 0.5897 4.474605779070409 15.441762412182717 2.0181741052568665 0 0 0
234 78 1 0.5897 1.4289346154944962 15.052156025397798 7.632312482206193 0 0 0
404 135 1 0.5897 -1.6047656935128947 15.77949359771904 7.856709564769083 0 0 0
403 135 2 -1.1794 -2.3486201654276186 15.646565879040022 8.444291785988305 0 0 0
282 94 1 0.5897 -2.609136497754305 14.278731179616255 2.5635547125006113 1 0 0
178 60 2 -1.1794 2.069081853777135 13.956291619222842 4.770360582305104 0 0 0
180 60 1 0.5897 2.1028092750316913 13.404875497083625 3.9887141305925184 0 0 0
368 123 1 0.5897 1.9159035891843388 16.022549103351285 2.5698020065640446 0 0 0
314 105 1 0.5897 -0.22741832589147704 15.184536690831138 2.0380890748071034 1 0 0
175 59 2 -1.1794 -0.763244540667368 13.936397184492295 5.194711729924357 0 0 0
313 105 2 -1.1794 -1.0179540507837181 14.831192774224386 1.630172573138322 1 0 0
315 105 1 0.5897 -0.7029829700480654 14.119353190467818 1.0731848391867074 1 0 0
225 75 1 0.5897 -0.9523503466190375 12.50176659093197 3.898812939313914 0 0 0
278 93 1 0.5897 -3.656434076465019 14.68797805332979 7.561513302797099 1 0 0
756 252 1 0.5897 -1.4511039867354274 14.277933783460925 9.36874934704066 0 0 0
252 84 1 0.5897 2.7889719605105228 14.41083275197615 0.7167819131006822 0 0 0
214 72 2 -1.1794 1.7854150280599272 12.58161645001366 2.393180992624798 0 0 0
215 72 1 0.5897 1.892778822677072 12.953617123112192 1.5177248394845841 0 0 0
216 72 1 0.5897 0.8553865351638859 12.362084597998113 2.4483151041021474 0 0 0
176 59 1 0.5897 -1.2599087527450985 14.74890198559498 5.09788865827083 0 0 0
406 136 2 -1.1794 3.6255611866766184 15.800896650769126 1.7607034098350338 0 0 0
500 167 1 0.5897 -1.985477319782868 16.066100115482335 0.711027262876493 1 0 0
177 59 1 0.5897 0.12306048212275922 14.16192309629531 4.9121617709265015 0 0 0
367 123 2 -1.1794 1.0201630112392897 16.314820586962046 2.738191347607503 0 0 0
421 141 2 -1.1794 -2.1289783594866405 16.405391151606292 4.799826736211418 1 0 0
179 60 1 0.5897 2.1303500334306493 13.34089154400399 5.501012516862673 0 0 0
279 93 1 0.5897 -5.12404335116485 14.328160550945862 7.469816420589392 1 0 0
425 142 1 0.5897 -3.993785909951373 16.11344573875922 4.838294762145355 1 0 0
327 109 1 0.5897 -3.886537218991357 13.105146984779344 5.614224154838013 1 0 0
211 71 2 -1.1794 -0.5344488497388351 12.396170399852974 7.548261359623471 0 0 0
212 71 1 0.5897 -0.5918999076319698 12.873676020348356 8.375825033607173 0 0 0
213 71 1 0.5897 -0.6375631962707402 13.069053846959557 6.875247826064313 0 0 0
370 124 2 -1.1794 0.008890092998231847 16.178633748221372 7.220039755658483 0 0 0
267 89 1 0.5897 -3.6820620469865752 13.013278975697057 8.55171654264623 1 0 0
325 109 2 -1.1794 -3.5312511465891454 12.473745519241357 4.988720627268012 1 0 0
405 135 1 0.5897 -2.3032545806175215 16.379399937011502 9.058353584426838 0 0 0
371 124 1 0.5897 0.31205011007245 16.773628474516237 7.905799450174516 0 0 0
233 78 1 0.5897 2.837822224696925 14.508424444745106 7.737400239579144 0 0 0
1004 335 1 0.5897 -4.754451050172868 16.78633813631708 9.064646796251479 1 0 0
369 123 1 0.5897 1.0387182176041083 16.638783211542677 3.638685810269001 0 0 0
250 84 2 -1.1794 2.410280035804351 13.859952121466035 0.031718521077602355 0 0 0
690 230 1 0.5897 1.8817986066013326 13.045510193701439 9.353521713385533 0 0 0
770 257 1 0.5897 -1.7264850325378847 12.449790614476258 0.0957247121463467 1 0 1
372 124 1 0.5897 0.24703926157457134 16.614464811334514 6.401694197865999 0 0 0
265 89 2 -1.1794 -3.5381795331964923 12.669386496250196 9.43337729857803 1 0 0
774 258 1 0.5897 -5.333785166560584 12.045063360469415 9.405001891151826 1 0 0
910 304 2 -1.1794 0.5764678087499249 15.75493975090216 11.166232279711915 0 0 0
831 277 1 0.5897 -7.4919043819135815 11.872430761115202 14.007122221306782 1 0 0
1005 335 1 0.5897 -4.449210021673888 15.875022315436787 10.234462205296897 1 0 0
718 240 2 -1.1794 -1.3292473769097173 12.156998204080473 12.056392298299551 0 0 0
688 230 2 -1.1794 2.0029057934683374 12.278216336467032 9.912917650818233 0 0 0
720 240 1 0.5897 -1.1419727380319866 12.794979587652717 12.744938080197242 0 0 0
911 304 1 0.5897 -0.11923202807134681 15.818457001310088 11.820579784256068 0 0 0
873 291 1 0.5897 -2.371244897566684 15.833501566834027 12.192341104430795 0 0 0
830 277 1 0.5897 -7.1984087316192955 12.900186356081633 15.0792043549699 1 0 0
773 258 1 0.5897 -6.114013043065759 12.429430230063069 10.64407455392494 1 0 0
729 243 1 0.5897 -4.008485426845256 12.450571729672179 13.281189376450456 0 0 0
927 309 1 0.5897 -5.204525975758775 16.78670325084383 14.823921954266693 1 0 0
875 292 1 0.5897 -2.807944724377914 16.418264028885115 16.00744719280111 0 0 0
784 262 2 -1.1794 -6.029670538241603 13.705797339315938 11.992694602035177 1 0 0
829 277 2 -1.1794 -6.821761526735803 12.489521996788977 14.300966954034454 1 0 0
719 240 1 0.5897 -1.1250883608066435 12.616315083881169 11.241721745705268 0 0 0
786 262 1 0.5897 -6.289919391676608 13.332356734319792 12.834806706469623 1 0 0
817 273 2 -1.1794 -3.5424570378177513 14.694326835344205 11.384413998308627 1 0 0
818 273 1 0.5897 -4.363005804589552 14.384468002739457 11.767755118565407 1 0 0
819 273 1 0.5897 -3.2178995148988894 13.949676492323082 10.878142343954282 1 0 0
930 310 1 0.5897 -7.2179157611718825 16.033558295851602 14.37229717878689 1 0 0
730 244 2 -1.1794 -0.9090288220059017 11.78406162496908 16.033357740784886 0 0 0
679 227 2 -1.1794 -3.6819787707284206 13.868613474214952 14.55586375665799 0 0 0
783 261 1 0.5897 -8.2441947003297 13.910058188595643 16.869740155483427 1 0 0
684 228 1 0.5897 -0.36959472663821114 14.54513286740403 14.290589516642827 0 0 0
682 228 2 -1.1794 -1.0284430925745962 13.856776433946234 14.199127443689976 0 0 0
806 269 1 0.5897 -5.799656349025845 11.48909712773531 15.262261489724738 1 0 0
683 228 1 0.5897 -0.8384840078135731 13.246406202053475 14.911656564032628 0 0 0
926 309 1 0.5897 -4.693284990958508 15.436360651695585 14.368962878783238 1 0 0
754 252 2 -1.1794 -0.8206874091945267 13.797871561422808 9.905699828768338 0 0 0
876 292 1 0.5897 -2.1695175581452943 15.320875471262177 16.83215541670929 0 0 0
681 227 1 0.5897 -3.7631825812394686 13.3869707666137 15.379134921769033 0 0 0
907 303 2 -1.1794 -5.429934251662511 15.527731984783324 17.54875610655546 0 0 0
925 309 2 -1.1794 -5.399116896251265 16.06646545147931 14.224265996339634 1 0 0
680 227 1 0.5897 -2.7388933374689595 13.976724462509948 14.433020546313488 0 0 0
908 303 1 0.5897 -5.9654749876298325 15.008623104851306 16.94882433455937 0 0 0
728 243 1 0.5897 -3.131018672398776 11.66147915517492 12.33300284514937 0 0 0
844 282 2 -1.1794 0.6537090011838274 16.05634389548024 14.558276238094551 0 0 0
715 239 2 -1.1794 -3.524796790268107 12.49710399680628 16.92796303724586 0 0 0
716 239 1 0.5897 -3.508983810521406 12.87822706479211 17.805849859950655 0 0 0
871 291 2 -1.1794 -1.7619300265381197 16.516528959091755 12.472443292768506 0 0 0
874 292 2 -1.1794 -2.893490894159161 15.94696053564363 16.83624180934678 0 0 0
736 246 2 -1.1794 -0.5846013221222774 14.56607910162982 17.596596214053555 0 0 0
912 304 1 0.5897 1.2253094342646058 15.172844148045701 11.561672020924188 0 0 0
807 269 1 0.5897 -4.666416601129596 11.400216274793829 16.262081173143798 1 0 0
909 303 1 0.5897 -4.564624070708703 15.549783544740102 17.140161522875047 0 0 0
781 261 2 -1.1794 -7.353667411223807 13.583693956268052 16.740974349937325 1 0 0
782 261 1 0.5897 -7.110137253588547 13.210231162502028 17.588034314324602 1 0 0
755 252 1 0.5897 -0.18960616380063566 14.461034456124281 10.185348242360593 0 0 0
717 239 1 0.5897 -2.64496144693082 12.14082908884544 16.805155527424894 0 0 0
727 243 2 -1.1794 -3.930791928408123 11.597059271342912 12.854951515615255 0 0 0
737 246 1 0.5897 -0.4088915968871403 15.232731484865726 18.26059099097887 0 0 0
846 282 1 0.5897 0.6193877041068658 16.81018511924219 13.96928381620806 0 0 0
732 244 1 0.5897 -0.06806566051948959 11.518355460841239 16.405267089987056 0 0 0
251 84 1 0.5897 -4.494441251540306 14.447053272234193 18.7085699652283 0 0 -1
185 62 1 0.5897 -0.9245072663828662 13.237550952789391 18.78982057728463 0 0 -1
1003 335 2 -1.1794 -5.168055090825872 16.333981485328458 9.799944898552493 1 0 0
772 258 2 -1.1794 -6.2206106690535545 12.067270914250795 9.764489618226543 1 0 0