LAMMPS data file via write_data, version 27 Oct 2021, timestep = 500000

864 atoms
2 atom types
576 bonds
1 bond types
288 angles
1 angle types

0.6397032225380226 17.567869177461176 xlo xhi
1.845017168277133 21.784160631726664 ylo yhi
0.7804364373218995 21.432759362678016 zlo zhi

Masses

1 1.00794
2 15.9994

Pair Coeffs # lj/cut/tip4p/long/omp

1 0 0
2 0.21084 3.1668

Bond Coeffs # harmonic/omp

1 450 0.9572

Angle Coeffs # harmonic/omp

1 55 104.52

Atoms # full

823 1 2 -1.1794 1.0654140320597505 5.3093267005542035 6.41256564755159 -1 4 2
824 1 1 0.5897 1.0084986753864507 6.228013800291026 6.1498897291273655 -1 4 2
18 1 1 0.5897 0.6955051029407501 6.214492860220101 2.95650788430057 -1 3 3
541 1 2 -1.1794 3.37872192116274 3.5192617684122984 4.264427871574771 -5 2 2
435 1 1 0.5897 4.021073212794114 2.493889309346492 3.008351102895991 -2 2 0
49 1 2 -1.1794 5.274498698613383 4.8756163880894 1.7863973171004786 8 0 -2
51 1 1 0.5897 4.366188132387508 4.644058944741129 1.592554796567475 8 0 -2
441 1 1 0.5897 6.07688961890068 4.091733984427054 3.712612386040619 -1 0 -1
857 1 1 0.5897 2.702123772709916 5.813382853214327 7.4579302904278535 1 0 -3
16 1 2 -1.1794 1.5889668173910017 6.4155942493529095 2.6781113658678377 -1 3 3
17 1 1 0.5897 1.9842036781614703 5.561309766789421 2.504319973103378 -1 3 3
542 1 1 0.5897 3.506608771044793 3.492769520983179 5.2126717444080874 -5 2 2
264 1 1 0.5897 4.543020542430169 6.900659712203423 4.088894850241312 3 -2 4
262 1 2 -1.1794 4.389465919661625 6.269688378597277 4.792114815865951 3 -2 4
825 1 1 0.5897 0.6403710625730296 5.278007985627736 7.2696423302976685 -1 4 2
263 1 1 0.5897 4.07484245893123 5.483954706341827 4.3450695690898415 3 -2 4
128 1 1 0.5897 5.658920765688572 6.151496947612276 6.150822711527429 -2 0 -4
543 1 1 0.5897 2.428691233510421 3.4970947090802795 4.149683435949349 -5 2 2
330 1 1 0.5897 3.8770352023528973 4.10832860521888 7.532664559195795 3 6 0
328 1 2 -1.1794 3.9940101107231594 3.322758493745573 6.998427281487361 3 6 0
294 1 1 0.5897 2.341537266066844 2.881793476038365 7.414942052346582 -1 -1 2
433 1 2 -1.1794 4.402696513162125 1.967938882578343 2.305529937019089 -2 2 0
329 1 1 0.5897 4.14180949442366 2.6211272548492532 7.632524642595875 3 6 0
292 1 2 -1.1794 1.5336259445237144 2.4022800880498933 7.598146334303931 -1 -1 2
568 1 2 -1.1794 5.7785540323772615 7.518939465147249 0.9314276519105915 1 1 0
118 1 2 -1.1794 0.6744733949165802 3.6327245701597697 4.343485131190892 4 -2 -2
120 1 1 0.5897 0.7591487523662284 4.36290367504729 4.95658595153173 4 -2 -2
730 1 2 -1.1794 2.149167693082304 7.786257793835347 5.178033919958092 3 1 -5
732 1 1 0.5897 1.674843616846627 7.622312944947531 4.362951560095464 3 1 -5
569 1 1 0.5897 5.274284447093959 7.8802413002032585 1.6603962274401212 1 1 0
731 1 1 0.5897 2.961207789759152 7.287631354058268 5.087609033651317 3 1 -5
499 1 2 -1.1794 4.478755609872893 8.482781498772688 3.167574322310334 -1 -1 -3
366 1 1 0.5897 5.948268336719887 3.378608448741449 7.257517245619864 3 4 2
765 1 1 0.5897 6.194413010634482 3.670401769758747 0.8438497683856032 -5 1 -2
671 1 1 0.5897 2.0538869682441785 7.3206158904336895 1.0945216764580055 6 1 1
50 1 1 0.5897 5.421621752005399 5.691318184568969 1.3076407663550578 8 0 -2
106 1 2 -1.1794 2.7022172495778127 4.252416451896031 1.2597291423752317 1 -1 4
107 1 1 0.5897 2.8955925356326264 3.3151749983802183 1.2397318699385598 1 -1 4
440 1 1 0.5897 7.379263646282159 3.320704938667303 3.7471267111790296 -1 0 -1
439 1 2 -1.1794 6.607217557334331 3.5264410471250627 4.274212511804137 -1 0 -1
335 1 1 0.5897 8.524761008810462 5.628999571372056 3.2747891584264837 5 0 4
191 1 1 0.5897 7.124316158863034 7.780813028317257 4.495268585088983 4 4 -3
487 1 2 -1.1794 9.668166664882333 5.494113014060943 6.543523696865389 2 -5 4
127 1 2 -1.1794 6.336106489253997 6.132155894146994 6.827034685097839 -2 0 -4
129 1 1 0.5897 6.708517522507097 5.252313996140042 6.768629443400544 -2 0 -4
489 1 1 0.5897 9.443082508464927 5.250564602091325 5.645624202165446 2 -5 4
334 1 2 -1.1794 7.835189590219788 6.151592750131355 2.8653953536381533 5 0 4
29 1 1 0.5897 8.048239027340774 2.913153626889499 1.951348341096039 -7 -1 5
488 1 1 0.5897 10.593010119079834 5.737271500816155 6.501570963595 2 -5 4
336 1 1 0.5897 7.271730468597694 5.509450526392673 2.4336659958906943 5 0 4
320 1 1 0.5897 9.226904838981973 7.41639597685723 7.301863177461214 1 -2 2
859 1 2 -1.1794 10.098993683340993 4.884228446772568 3.9985549114440326 -1 -3 2
860 1 1 0.5897 10.903952804506321 5.14138319845182 3.5489611120743496 -1 -3 2
28 1 2 -1.1794 8.700251160058574 2.719815123584041 2.6249387277254117 -7 -1 5
861 1 1 0.5897 10.077394014599637 3.930107988139676 3.9250801150035297 -1 -3 2
365 1 1 0.5897 7.0010728320531985 3.1734516717641315 6.189160687865141 3 4 2
645 1 1 0.5897 10.04345689415717 3.1841362292269584 6.189007780281312 4 -1 -1
643 1 2 -1.1794 10.05456553542254 2.409815932338173 5.626408604972496 4 -1 -1
31 1 2 -1.1794 11.517700840690917 8.489172828180063 3.7632580165218554 3 6 0
33 1 1 0.5897 11.495416479985943 8.29671125346773 4.700640318417212 3 6 0
30 1 1 0.5897 9.244689391142623 2.0321686052702947 2.2415975307185927 -7 -1 5
615 1 1 0.5897 11.504889732625276 2.609667279656901 4.442312257019937 -9 1 5
364 1 2 -1.1794 6.893450711328877 3.2933112352969545 7.132702655084261 3 4 2
495 1 1 0.5897 10.754243236331346 2.156231818002693 0.7994781647351832 -3 -1 0
478 1 2 -1.1794 11.191960182508087 7.25140449355877 0.9145096657446856 -3 3 -4
480 1 1 0.5897 10.31019553458981 7.5134472373013805 1.179136387298418 -3 3 -4
570 1 1 0.5897 6.590475229888189 8.025876172198394 0.9267020045602777 1 1 0
614 1 1 0.5897 12.311805093400652 3.5415240450485923 3.5634478677777963 -9 1 4
613 1 2 -1.1794 11.925793603446468 2.6658759071870044 3.5844762612713015 -9 1 5
119 1 1 0.5897 16.919658354785597 3.079289432199464 4.722256358198411 3 -2 -2
394 1 2 -1.1794 15.872847134955519 4.051079231632574 2.2238912998536025 1 1 5
396 1 1 0.5897 15.936730458305515 3.2723941662274925 1.67091013937044 1 1 4
395 1 1 0.5897 16.60691613052264 3.9735496132877137 2.8332774421610316 1 1 5
820 1 2 -1.1794 12.364010363918574 3.401091160466651 7.0592209576865095 2 2 4
821 1 1 0.5897 12.998915571349924 2.7514684039252466 7.361043443862378 2 2 4
147 1 1 0.5897 13.183699981496279 5.773702711730472 2.991081293817997 -1 2 -1
148 1 2 -1.1794 15.135866282219148 6.307692078789139 0.8974909876699626 -4 0 1
150 1 1 0.5897 15.446821215676527 5.473105700181826 1.24819901015603 -4 0 1
531 1 1 0.5897 14.553304446977274 4.974133220296409 5.005160478286042 -1 2 -3
529 1 2 -1.1794 13.688024252230692 4.586412033231527 4.8740901335688 -1 2 -3
530 1 1 0.5897 13.462525852452499 4.209664973509071 5.724630595678287 -1 2 -3
546 1 1 0.5897 12.820986822660535 6.435094954385752 6.7422994516209345 -4 4 6
545 1 1 0.5897 12.304083957875129 6.128803914830607 5.352750843480597 -4 4 6
544 1 2 -1.1794 12.17349427473148 6.717289200550288 6.096288253281086 -4 4 6
702 1 1 0.5897 13.101435128345607 8.005235264433917 3.0162058494439705 4 1 2
146 1 1 0.5897 12.132056683830609 6.084261688017007 1.9473189468388645 -1 2 -1
145 1 2 -1.1794 12.417221211203586 5.401719278589194 2.554803513388096 -1 2 -1
563 1 1 0.5897 16.118040339143967 6.979158944749755 5.291294587952985 0 2 5
802 1 2 -1.1794 15.719267271312118 2.7422191973053835 7.158512690893909 3 3 -1
804 1 1 0.5897 16.65909231754393 2.569117991249624 7.213155000095357 3 3 -1
82 1 2 -1.1794 14.983664783227004 6.515625921637265 6.987922834064306 -3 -2 -7
562 1 2 -1.1794 16.245889481151565 6.79223624145061 4.361285146592352 0 2 5
296 1 1 0.5897 14.370016685581511 2.693674278398479 4.016012029358132 -1 3 3
564 1 1 0.5897 15.597430245633566 7.337274182967275 3.9155982521460477 0 2 5
83 1 1 0.5897 15.437750709680037 5.725452626442479 7.280592365827752 -3 -2 -7
700 1 2 -1.1794 14.033253278295586 7.799555725062765 3.091259549368558 4 1 2
701 1 1 0.5897 14.251868559445528 7.371145840461412 2.2636781807708197 4 1 2
803 1 1 0.5897 15.315046379807297 1.8745635248670764 7.158337384604811 3 3 -1
295 1 2 -1.1794 14.813128652325705 1.9263349216258367 4.378041099098745 -1 3 3
306 1 1 0.5897 16.485145095676103 8.00028454348862 1.2746019085874387 3 0 -7
822 1 1 0.5897 12.530199098032693 4.170291698190304 7.604136745400184 2 2 4
41 1 1 0.5897 3.3169040789160076 10.42908435307751 5.217628957403846 -3 -1 4
42 1 1 0.5897 3.085785938428786 10.912925953678467 3.801907345332115 -3 -1 4
40 1 2 -1.1794 3.6841273500307494 11.001181421712134 4.543788465261544 -3 -1 4
21 1 1 0.5897 1.942616828781385 14.20815436447265 3.413700053272335 -4 -3 1
19 1 2 -1.1794 2.301569157804625 14.650480736914524 2.6444727775725183 -4 -3 1
176 1 1 0.5897 5.347721325336162 11.305118002810696 5.592402993467968 1 -4 6
303 1 1 0.5897 2.3029330370115826 9.181753698631567 6.347324528899895 -1 1 7
301 1 2 -1.1794 2.6534299817514806 9.778443109391318 7.008636327489153 -1 1 7
20 1 1 0.5897 2.797898352969759 13.971714225775624 2.1871501904085364 -4 -3 0
302 1 1 0.5897 3.2165660525359154 9.228726321671886 7.553533031959278 -1 1 7
501 1 1 0.5897 3.638298081727666 8.855946873858661 2.901956081322617 -1 -1 -3
422 1 1 0.5897 6.150265022560071 14.082046332506849 4.093170865426439 -1 1 5
747 1 1 0.5897 5.7880870177780785 14.882620462825926 7.198086429459803 2 2 -7
622 1 2 -1.1794 2.5083323548571936 12.706633914190112 6.871600345258243 6 -2 2
757 1 2 -1.1794 1.7640571091562383 10.077774935566213 2.516751059699793 0 1 2
759 1 1 0.5897 1.0292212066238502 9.950732672245046 3.116823442747665 0 1 2
421 1 2 -1.1794 5.245786814267751 14.326846897837143 4.288592030660773 -1 1 5
423 1 1 0.5897 4.893685778759761 14.631838719998077 3.4523968195053514 -1 1 5
500 1 1 0.5897 5.0164714366518615 9.240954711613329 3.396170610225362 -1 -1 -3
758 1 1 0.5897 1.3545391249131864 10.248309294471683 1.6685551371238376 0 1 2
175 1 2 -1.1794 6.083714973391479 11.47434909513105 6.180523831767908 1 -4 6
377 1 1 0.5897 5.057702424835897 11.673007906217803 2.2678198360661916 2 4 4
240 1 1 0.5897 0.8639101060823351 14.306571195080993 1.5144793870171438 -5 -4 -1
623 1 1 0.5897 3.0474980758400507 13.491992539851903 6.778163263648268 6 -2 2
624 1 1 0.5897 3.043207207218999 12.003175375050002 6.5038221152200055 6 -2 2
137 1 1 0.5897 5.800922792312864 12.735509654335933 7.4239116169578905 6 -7 0
376 1 2 -1.1794 5.927286661312002 11.388023935793562 2.5485687301315885 2 4 4
780 1 1 0.5897 0.8585569093071591 13.108181848775926 5.547572905640889 -1 1 -2
778 1 2 -1.1794 0.6905539968451885 13.048470018936401 4.607130776540435 -1 1 -2
323 1 1 0.5897 3.7342194936266084 14.717196246388127 5.194538741400132 5 -2 -1
457 1 2 -1.1794 3.6238093698762555 12.521798540521468 1.4433525523010298 -1 0 -1
459 1 1 0.5897 2.799737556606404 12.035189144115444 1.4254059194508106 -1 0 -1
32 1 1 0.5897 10.603458753674019 8.64942438235312 3.5293678172901957 3 6 0
828 1 1 0.5897 8.829935800326709 8.60371201825677 2.022620856681109 1 1 2
826 1 2 -1.1794 9.229856875903636 9.142443600462375 2.7052956925110543 1 1 2
827 1 1 0.5897 8.675676777435203 9.006386501890294 3.473789343300591 1 1 2
177 1 1 0.5897 6.860443591036316 11.345124662946521 5.6362672169930805 1 -4 6
190 1 2 -1.1794 7.4049043753945165 8.68630956517375 4.6277553140589305 4 4 -3
663 1 1 0.5897 6.624478459528085 9.979261993354585 7.167115635485834 -1 -4 1
192 1 1 0.5897 7.390323177013359 8.805574711794328 5.577379081805467 4 4 -3
206 1 1 0.5897 8.829264336880621 11.249487632197308 3.908012916706741 -4 3 -3
205 1 2 -1.1794 8.743389562735134 11.479612143536704 4.83314593836824 -4 3 -3
243 1 1 0.5897 7.974385087731261 14.127970524656273 2.8347462017538647 0 -2 2
661 1 2 -1.1794 6.991228965661981 9.202303411204491 7.589059546421537 -1 -4 1
241 1 2 -1.1794 7.636945244234598 13.50690363054429 3.4802182869107376 0 -2 2
242 1 1 0.5897 8.394312081854652 12.971611476784725 3.716984683103718 0 -2 2
770 1 1 0.5897 10.986291960722907 13.994097757906871 4.776073097050748 2 -2 1
769 1 2 -1.1794 11.266123380469917 13.231513698840336 5.282412268719752 2 -2 1
771 1 1 0.5897 11.247368324577058 13.527648834338107 6.192451762992371 2 -2 1
93 1 1 0.5897 10.313025348455385 13.207999050873378 1.2007472686922922 0 -5 1
92 1 1 0.5897 10.839787299551869 12.185786629638201 2.185367691698387 0 -5 1
91 1 2 -1.1794 10.0569106852325 12.426027891563631 1.6897760242758215 0 -5 1
378 1 1 0.5897 6.328735579784544 12.17332692979748 2.920526012846874 2 4 4
12 1 1 0.5897 10.660243601123748 9.30703099547659 6.9607472976244225 -4 0 6
10 1 2 -1.1794 11.011485175991831 10.005052310726805 6.407920885062889 -4 0 6
207 1 1 0.5897 9.547512813489016 11.153521163760772 5.2372056811987315 -4 3 -3
387 1 1 0.5897 7.202349342300332 11.00309043196932 1.063352727179313 -6 1 3
432 1 1 0.5897 11.63838695713959 11.61832350284899 4.203419140835987 -6 -2 -2
561 1 1 0.5897 8.395135351655764 14.335253728829413 5.436828057976673 6 0 2
386 1 1 0.5897 8.389364501933008 11.941888854787887 1.024369867026707 -6 1 3
431 1 1 0.5897 11.683320907436974 10.316644580245896 3.4317477047378455 -6 -2 -2
560 1 1 0.5897 8.136217828771105 13.069067198578047 6.225235746611256 6 0 2
559 1 2 -1.1794 8.172985859402981 14.021472244799064 6.313420116929301 6 0 2
65 1 1 0.5897 16.49744611802573 9.640677415194325 5.706001974198619 3 2 -3
11 1 1 0.5897 11.939443206157343 9.790939964624402 6.31163291883439 -4 0 6
64 1 2 -1.1794 16.609062928073023 9.227865353246884 6.562356661653417 3 2 -3
492 1 1 0.5897 13.823736554845514 11.184795488493585 5.6395423502590765 1 2 5
491 1 1 0.5897 12.837737049773498 12.33194899709418 5.700490312391793 1 2 5
490 1 2 -1.1794 13.74238026364402 12.099447295303866 5.90973828654467 1 2 5
238 1 2 -1.1794 17.13731311744892 14.225174045941774 0.8210385295648621 -6 -4 -1
684 1 1 0.5897 14.757875877095653 9.06892792533052 6.111698997394151 5 -1 -4
682 1 2 -1.1794 13.959054699985375 9.451167228885053 5.748382753857287 5 -1 -4
864 1 1 0.5897 15.852445307803888 10.349668249744184 3.4140195716945074 -2 -1 2
862 1 2 -1.1794 16.5417077121861 10.262622496417615 4.072474712924581 -2 -1 2
863 1 1 0.5897 16.742671347166365 11.162365869419995 4.329917404435406 -2 -1 2
779 1 1 0.5897 16.81138244144399 13.54556554817161 4.475534582812107 -2 1 -2
683 1 1 0.5897 13.803959668500438 8.960729731440235 4.941140260555598 5 -1 -4
430 1 2 -1.1794 11.961734715647163 11.231486468716506 3.3897727494904903 -6 -2 -2
555 1 1 0.5897 14.662320047890871 11.73179928332232 1.8724572515596776 -5 -5 3
548 1 1 0.5897 14.371203523598231 14.188565422251607 3.5072560395758 3 0 5
554 1 1 0.5897 13.766720745170732 11.049430117483341 2.8844478427161486 -5 -5 3
553 1 2 -1.1794 14.588176700426558 10.940161484990835 2.4053930468579647 -5 -5 3
547 1 2 -1.1794 15.022385398021044 13.876747804427247 4.1357014817183995 3 0 5
676 1 2 -1.1794 13.017593777894007 14.60186701066345 2.1416953025587873 2 -1 -2
269 1 1 0.5897 15.456866986230331 13.947222599790658 7.03042706141906 0 5 4
66 1 1 0.5897 16.88932210436822 9.939954004575924 7.1373374515288015 3 2 -3
549 1 1 0.5897 14.515828052018893 13.385244032387146 4.782257457903773 3 0 5
268 1 2 -1.1794 16.383258633260354 13.753827109388386 7.173982084812696 0 5 4
678 1 1 0.5897 13.1121981121773 14.18200952888148 1.2867215538017547 2 -1 -2
766 1 2 -1.1794 13.738733576436054 14.955768442511157 7.272549645328473 -2 -1 2
783 1 1 0.5897 13.121002297729866 11.978229867004435 7.549900235705767 -3 1 1
270 1 1 0.5897 16.830848418235227 14.582216258637269 7.001776615197895 0 5 4
632 1 1 0.5897 13.427723501953514 9.98583862250466 1.113600732106539 2 5 3
79 1 2 -1.1794 2.116324311042126 20.429619118814763 5.623781782684322 1 0 -4
81 1 1 0.5897 1.3156098647950334 20.38756693483645 5.100990314710651 1 0 -4
434 1 1 0.5897 3.778344929932881 21.193643841020304 2.1735679393584153 -2 1 0
80 1 1 0.5897 1.9729494110944639 21.16140579394643 6.223911463832326 1 0 -4
746 1 1 0.5897 5.853961110958386 15.522683933474019 5.827757533371402 2 2 -7
745 1 2 -1.1794 5.793073380911593 15.733391217568167 6.75947222312106 2 2 -7
852 1 1 0.5897 5.864490337114462 15.340333610305368 1.1833037161138393 -4 -2 -1
453 1 1 0.5897 5.389108509204537 20.588096937083648 3.2311384097895215 0 -2 6
130 1 2 -1.1794 2.1375594936905307 17.155895397453055 3.4816720011260336 -5 0 1
131 1 1 0.5897 2.286981252076254 16.247167986373988 3.220690206609396 -5 0 1
369 1 1 0.5897 4.07042862379562 18.910802693865968 1.8276071575877573 5 6 -2
451 1 2 -1.1794 6.000985261623303 20.016696696978634 3.695166927598899 0 -2 6
367 1 2 -1.1794 3.3540510487625714 19.223509432358888 2.380089322006392 5 6 -1
368 1 1 0.5897 2.908568005740495 18.42708682441166 2.669016390851173 5 6 -1
265 1 2 -1.1794 5.769598070903875 18.53279439874911 0.8928708486657604 -2 -1 -4
786 1 1 0.5897 1.799497517751665 19.501945162617652 1.3440461926574578 4 5 3
324 1 1 0.5897 3.85492249264358 15.611103538704503 6.41036123061924 5 -2 -1
587 1 1 0.5897 4.681541760415238 18.957343691655637 4.776621261537637 1 1 5
322 1 2 -1.1794 3.210567954764552 15.18927959616547 5.841950101210485 5 -2 -1
586 1 2 -1.1794 4.164225764621105 18.77918071654048 5.562022172857398 1 1 5
851 1 1 0.5897 5.666777590066346 16.41224432169575 2.233914941133256 -4 -2 -1
850 1 2 -1.1794 5.188209634385334 15.777422530557512 1.7008129267690482 -4 -2 -1
132 1 1 0.5897 2.468211591842601 17.205464424097684 4.378571937970873 -5 0 1
575 1 1 0.5897 0.9255666029981633 19.355070907987574 6.936860138688595 2 0 0
195 1 1 0.5897 4.31893581080538 18.243043636788443 7.2517073883673815 3 -2 2
588 1 1 0.5897 3.383101221146295 19.32354288041188 5.463473607922497 1 1 5
75 1 1 0.5897 1.6607316058812338 15.703720785702346 6.579967026917323 -1 0 4
74 1 1 0.5897 0.99389700891124 16.69268799850905 7.51222539311158 -1 0 4
73 1 2 -1.1794 0.815401383852807 16.107718261019823 6.775901985094473 -1 0 4
644 1 1 0.5897 10.309396310891266 21.63306896282235 6.208435127483288 4 -2 -1
494 1 1 0.5897 11.238581711457812 21.768031827364517 2.1959452828169708 -3 -2 0
650 1 1 0.5897 7.1786995658114545 17.421487104836828 4.620832298783126 3 -1 0
651 1 1 0.5897 6.521377251452997 18.131978618257754 3.4567956430145697 3 -1 0
649 1 2 -1.1794 6.644641155577632 17.264498072819514 3.842145506541836 3 -1 0
267 1 1 0.5897 6.68518647408921 18.603064145763938 1.1630157862504413 -2 -1 -4
452 1 1 0.5897 6.4778035416180355 20.60263847130001 4.282966944364013 0 -2 6
755 1 1 0.5897 7.6261462748962465 20.072479925970732 2.4274886269529308 -3 -3 -4
276 1 1 0.5897 9.55023250380868 16.977922538954985 6.620486372335415 -2 2 -3
740 1 1 0.5897 9.355196738056899 15.821944438327817 2.7152997374366823 -3 -1 3
739 1 2 -1.1794 8.48519026241246 15.869574297795216 2.319013664778841 -3 -1 3
756 1 1 0.5897 8.785018593089488 19.161016265499867 2.083841760668675 -3 -3 -4
754 1 2 -1.1794 8.121928201276951 19.72516303561882 1.6860147757243111 -3 -3 -4
611 1 1 0.5897 11.303796114306566 15.326401824285716 2.8651999558779817 3 2 -2
58 1 2 -1.1794 7.834144174100545 20.795896773551164 5.437693046305036 5 -1 -2
60 1 1 0.5897 7.416787846670906 20.60373750709519 6.277399394596722 5 -1 -2
59 1 1 0.5897 8.494540229429012 21.45744130737944 5.6437487478486075 5 -1 -2
610 1 2 -1.1794 10.889248162053812 15.715259984034398 3.6353662261230895 3 2 -2
274 1 2 -1.1794 10.466222610285593 16.704355168844256 6.668822563939811 -2 2 -3
612 1 1 0.5897 11.617820413900128 15.926602718562714 4.219091820924156 3 2 -2
741 1 1 0.5897 7.980374213059404 16.423728387725866 2.914234293468473 -3 -1 3
511 1 2 -1.1794 7.935466169505607 17.499129596148006 6.274532549797661 -1 1 -4
738 1 1 0.5897 9.996239240306847 18.605962309925772 5.397187959232307 0 -2 -2
737 1 1 0.5897 9.130002950239325 19.773288089361834 4.974273401819827 0 -2 -2
736 1 2 -1.1794 9.823789444594917 19.192969536975646 4.661045278548132 0 -2 -2
724 1 2 -1.1794 10.75995843200163 18.601196733583336 2.174946374631458 -1 -5 3
725 1 1 0.5897 10.444940305323568 18.580326419008422 3.078562220209613 -1 -5 3
726 1 1 0.5897 10.634085703760716 19.508693056863144 1.8978022359887743 -1 -5 3
512 1 1 0.5897 7.385968126422681 16.754651912949306 6.519497321647567 -1 1 -4
275 1 1 0.5897 10.442717609960653 15.868141589216586 7.134025961892703 -2 2 -3
513 1 1 0.5897 7.782792138120371 18.14679219993969 6.962603054979937 -1 1 -4
855 1 1 0.5897 11.907844038271472 17.563544026512755 7.460498549197274 -4 0 1
339 1 1 0.5897 11.658629680933148 19.431435998985194 4.659064521039167 -3 1 3
772 1 2 -1.1794 10.770959533651505 20.349984367545957 7.551966172917009 3 -5 3
774 1 1 0.5897 11.492316972581907 19.73055994412796 7.662320292244977 3 -5 3
374 1 1 0.5897 8.582835013321109 16.692241400550028 0.8466715016613007 2 4 0
493 1 2 -1.1794 10.858974394254627 21.368457729312404 1.4133511669136711 -3 -2 0
297 1 1 0.5897 14.275716946583929 21.609420259713566 5.12760342439874 -1 2 3
338 1 1 0.5897 12.948875905406673 19.593154981066554 3.8838330553488394 -3 1 3
677 1 1 0.5897 13.100588556246716 15.537959786231616 1.9598620966350042 2 -1 -2
591 1 1 0.5897 16.79697582084672 17.47376454275335 1.102216321037241 1 5 4
247 1 2 -1.1794 13.120601848124783 17.415532633529907 1.7855904864820573 -4 2 -3
248 1 1 0.5897 13.002709766050083 17.000274491233395 0.9312674992370789 -4 2 -3
188 1 1 0.5897 13.889773114412101 16.3750073256611 4.864282720234348 0 6 2
337 1 2 -1.1794 12.607516422776593 19.335123027816692 4.740055222643781 -3 1 3
187 1 2 -1.1794 12.974137979242162 16.573171964446086 5.060617468472553 0 6 2
189 1 1 0.5897 12.873538590622848 17.496571195751628 4.8294580543899 0 6 2
814 1 2 -1.1794 13.848012426856846 20.654454079639258 6.855657188019347 -5 6 -2
728 1 1 0.5897 16.402324337726466 19.379903267691354 3.6250660537507406 -1 2 0
727 1 2 -1.1794 16.65232549652108 19.804548389932968 4.445672970464448 -1 2 0
816 1 1 0.5897 13.430306908947216 19.955010326399773 6.353140790508057 -5 6 -2
288 1 1 0.5897 13.266654953940266 20.92934704522336 1.9791714246183114 3 -1 2
287 1 1 0.5897 14.301295843484212 20.83764543565576 3.0805267788347566 3 -1 2
790 1 2 -1.1794 15.68847489044103 16.489367648187823 4.802369288530476 2 5 0
792 1 1 0.5897 16.495026084522664 16.531262017238248 5.3161226129043815 2 5 0
768 1 1 0.5897 13.203969459668528 15.241139909601058 6.531736861005061 -2 -1 2
767 1 1 0.5897 14.292084757884561 15.710405229630478 7.473885883103994 -2 -1 2
214 1 2 -1.1794 15.721112029353465 18.005925844894307 2.45906290799229 0 0 3
215 1 1 0.5897 15.801837569256575 17.42757378005654 3.217491403859205 0 0 3
216 1 1 0.5897 14.78097048997058 18.04037095749809 2.282516351100812 0 0 3
729 1 1 0.5897 16.128145813263433 20.605051488241834 4.471058125291408 -1 2 0
286 1 2 -1.1794 13.895108821039562 20.328325482828973 2.379222332151469 3 -1 2
576 1 1 0.5897 16.606695645882517 19.013209580866942 6.149531311535783 1 0 0
574 1 2 -1.1794 16.9456705785461 19.07147842363642 7.04278327718569 1 0 0
791 1 1 0.5897 15.56615418445033 15.55706254629152 4.623297212531131 2 5 0
342 1 1 0.5897 15.297271209853175 20.943628327122475 1.2675589150301851 1 2 4
341 1 1 0.5897 16.795536783238184 21.060998791444533 1.0851385358989583 1 2 4
854 1 1 0.5897 13.322394748644871 18.072112809312898 7.640095906574251 -4 0 1
340 1 2 -1.1794 15.970490499547692 21.496377132605012 0.8707509386303356 1 2 4
249 1 1 0.5897 12.306798240407499 17.897571129879275 1.932478147124267 -4 2 -3
856 1 2 -1.1794 3.2840157646506607 5.634517538599091 8.196597434669188 1 0 -3
657 1 1 0.5897 4.4444838905212904 7.3465604752693965 8.174100759808454 2 1 0
858 1 1 0.5897 2.6974364089448795 5.5424780688168696 8.947375527786178 1 0 -3
640 1 2 -1.1794 2.9748913403679436 2.037187342426426 12.449470945783101 3 1 -4
642 1 1 0.5897 2.927282583916017 2.831651589410571 12.981241892340856 3 1 -4
831 1 1 0.5897 5.807120100866746 7.971563763662664 13.630741259191746 2 3 3
829 1 2 -1.1794 5.573523146128344 7.0804042178523 13.37097247865715 2 3 3
436 1 2 -1.1794 2.79880252972977 6.651410548989708 12.764150342835636 -1 5 0
151 1 2 -1.1794 2.1930786848216837 4.936420399685815 10.781601558361805 2 0 0
153 1 1 0.5897 3.0765455651697544 4.650836997142385 11.014293313028237 2 0 0
437 1 1 0.5897 2.3087189222536377 6.390367706617738 11.984474998083563 -1 5 0
152 1 1 0.5897 1.617811511357579 4.424020277024238 11.349692705727366 2 0 -1
293 1 1 0.5897 1.6417450783989698 2.0833867527201675 8.494158711253391 -1 -1 2
438 1 1 0.5897 3.616017958993679 7.015047749745897 12.423347477107178 -1 5 0
659 1 1 0.5897 2.864655720627338 5.034946937536608 13.646473775030989 1 1 2
8 1 1 0.5897 4.776650661109127 3.3182455686082584 10.695520920351031 1 -2 -1
658 1 2 -1.1794 2.8326926002942416 4.236741542963957 14.173793750124947 1 1 2
636 1 1 0.5897 5.939552977469366 2.715906267375893 13.90339936927103 -8 1 1
635 1 1 0.5897 6.218570790143401 4.191632094475356 14.093780130993201 -8 1 1
473 1 1 0.5897 5.984570270981551 5.640353791521114 10.323962055234198 -1 0 -3
474 1 1 0.5897 6.179004139386271 6.017793220821594 8.87082415099784 -1 0 -3
9 1 1 0.5897 5.331953179874354 3.996097879136362 11.93003692325382 1 -2 -1
7 1 2 -1.1794 4.890177342854039 4.178032999356812 11.100606330125023 1 -2 -1
655 1 2 -1.1794 4.627535481469678 8.25881093740573 8.398777255652027 1 1 0
656 1 1 0.5897 4.532449758668292 8.295265097794752 9.350529329549941 1 1 0
515 1 1 0.5897 2.2052037840961694 7.766359214697831 14.438118807626301 -4 -4 0
319 1 2 -1.1794 9.45126814190249 8.217539363781796 7.775191598121761 1 -2 2
830 1 1 0.5897 6.316127152381832 6.780838122149612 12.846548899851802 2 3 3
634 1 2 -1.1794 6.299091261661153 3.4821205836218985 13.456338265984497 -8 1 1
813 1 1 0.5897 8.882891700854303 4.745203984257206 7.976550190306122 -6 6 -2
384 1 1 0.5897 10.173651907542585 2.9825250259506815 9.395655988664906 -8 -2 -3
382 1 2 -1.1794 10.872710828198608 2.389866442876875 9.671870925667102 -8 -2 -3
383 1 1 0.5897 11.18877709731559 2.759346469841867 10.496377091345051 -8 -2 -3
811 1 2 -1.1794 8.944202683066612 4.346547643316919 8.844609903778972 -6 6 -2
812 1 1 0.5897 8.169434856252394 4.662886926418057 9.309236347952016 -6 6 -2
472 1 2 -1.1794 6.635384550601532 5.983223732782409 9.711504322490303 -1 0 -3
26 1 1 0.5897 8.519603848273338 5.340979075534253 12.592464231092931 -3 7 7
25 1 2 -1.1794 8.320422154054118 6.269876979938588 12.709458014656022 -3 7 7
558 1 1 0.5897 11.65068840347604 4.245672402433656 12.440159815686425 2 3 3
465 1 1 0.5897 8.014277152036772 3.4378902443219292 12.559678646652461 7 3 -1
463 1 2 -1.1794 8.805745148451297 3.3641618168934695 12.026432278375129 7 3 -1
464 1 1 0.5897 8.5610901603037 2.7732958591204584 11.314225510570934 7 3 -1
27 1 1 0.5897 8.487511319544254 6.661006623952161 11.851951153643014 -3 7 7
63 1 1 0.5897 9.943028040251761 7.220947155703865 9.18300845345055 -4 0 3
62 1 1 0.5897 9.731363809298138 5.793843906552038 9.641755405887663 -4 0 3
505 1 2 -1.1794 10.911191917772154 5.39740426217216 13.587137145419147 2 2 -3
506 1 1 0.5897 10.216745802289312 4.9008597999138015 14.02004756467077 2 2 -3
819 1 1 0.5897 10.770965551805945 2.150174133619405 14.10747318951853 2 -2 0
818 1 1 0.5897 9.551297991466937 2.3925997897567157 13.244069943818658 2 -1 0
61 1 2 -1.1794 10.340360195937148 6.528994965996397 9.711735323463245 -4 0 3
581 1 1 0.5897 7.307583218127489 7.770493674337912 10.279682235951098 -1 -3 0
580 1 2 -1.1794 7.637627645443394 8.383674229443592 10.936410238740546 -1 -3 0
681 1 1 0.5897 7.831546942709407 2.030399738254216 8.864275421942837 -8 -4 0
705 1 1 0.5897 8.308874709584172 7.046686423960346 14.13486752705623 2 -3 -2
507 1 1 0.5897 10.45233965494935 6.0990969505970005 13.125288309235904 2 2 -3
525 1 1 0.5897 16.82773754686903 5.877420411686029 9.535442546727854 0 1 3
523 1 2 -1.1794 16.82502533352536 5.210409672388849 8.848925142986474 0 1 3
524 1 1 0.5897 17.51437254466363 4.598244886302005 9.106358242554357 0 1 3
571 1 2 -1.1794 17.4845008299583 8.369327667917673 8.977391377453849 1 -1 -3
572 1 1 0.5897 16.558551508177388 8.42074456058007 9.214445662736267 1 -1 -3
84 1 1 0.5897 15.171494572354678 7.165208599603746 7.665403925638014 -3 -2 -7
115 1 2 -1.1794 16.91830545754589 3.7755850148689687 12.020253277836089 -1 -2 5
556 1 2 -1.1794 12.09127175324155 3.7269968238266884 11.767055271659284 2 3 3
627 1 1 0.5897 12.899228186544054 7.558999050885524 12.407544461586188 -6 -2 3
557 1 1 0.5897 12.621857796416622 3.0988702640053125 12.257105148550346 2 3 3
406 1 2 -1.1794 12.915604438005687 5.486383424626363 9.04753044259906 -6 -1 5
407 1 1 0.5897 13.338662887285082 6.3223179210233855 8.851430467977986 -6 -1 5
408 1 1 0.5897 12.054228414525717 5.727454818723993 9.388284952648727 -6 -1 5
78 1 1 0.5897 13.47092651849767 3.2763787039597285 14.217983480342934 -7 -3 -5
76 1 2 -1.1794 14.188675992005924 3.6327858733061307 13.694504273915836 -7 -3 -5
77 1 1 0.5897 14.858357631718517 2.949011041373371 13.708354368696126 -7 -3 -5
117 1 1 0.5897 16.823411993182354 3.0682539884565916 12.658140822054973 -1 -2 5
639 1 1 0.5897 16.73045307980312 7.382240609627733 12.294360443122784 -8 1 3
359 1 1 0.5897 14.489910967353506 7.208514696355308 10.417307327686293 1 0 -5
638 1 1 0.5897 16.49362207725178 5.888938831806335 12.370749786633393 -8 1 3
637 1 2 -1.1794 16.757824364098482 6.583563558063726 11.767497382711515 -8 1 3
358 1 2 -1.1794 14.474587823437142 7.703538842111812 9.598198939481188 1 0 -5
116 1 1 0.5897 16.261905044014345 3.58427772892737 11.350356069736488 -1 -2 5
46 1 2 -1.1794 15.812434783065331 5.719190055409321 14.492659437463264 1 -1 -1
47 1 1 0.5897 15.146827497251662 5.035184081623296 14.41967690600263 1 -1 -1
273 1 1 0.5897 14.078216635516934 3.90676794136635 9.80140349057405 -2 3 5
271 1 2 -1.1794 14.837554814464207 3.3275334315383773 9.86554889728576 -2 3 5
272 1 1 0.5897 15.36397478499784 3.535573740104521 9.093652071397589 -2 3 5
519 1 1 0.5897 13.058363273375537 5.723994904868847 11.358662988060555 -3 -2 -3
517 1 2 -1.1794 13.616054214779382 5.9603903677546155 12.099811978306366 -3 -2 -3
518 1 1 0.5897 13.968405649467865 5.126447849764935 12.410592862766281 -3 -2 -3
522 1 1 0.5897 1.3099340114677287 9.159181406446203 10.468225387394417 -2 0 -3