LAMMPS data file via write_data, version 30 Jul 2021, timestep = 7250000

972 atoms
2 atom types
648 bonds
1 bond types
324 angles
1 angle types

-0.06229365144658949 20.062294651443942 xlo xhi
-0.12941679256484662 20.12941779256291 ylo yhi
-0.10203235537567323 20.802030355376193 zlo zhi

Masses

1 1.008
2 15.999

Pair Coeffs # lj/cut/tip4p/long/omp

1 0 0
2 0.21084 3.1668

Bond Coeffs # harmonic/omp

1 450 0.9572

Angle Coeffs # harmonic/omp

1 55 104.52

Atoms # full

31 11 2 -1.1794 1.0420830590049182 1.8567008704755996 2.100485328643487 0 0 0
4 2 2 -1.1794 4.322638026950896 0.9940375927402523 3.5651225090699805 0 0 0
33 11 1 0.5897 1.6457802632636882 1.9079336086855014 1.3593583764538855 0 0 0
12 4 1 0.5897 2.688906325049452 3.84179708568275 3.9106807013435496 0 0 0
17 6 1 0.5897 4.9275179950515104 3.878874979395503 2.587439926312491 0 0 0
16 6 2 -1.1794 4.722591317632513 3.70044236777009 3.5053654031525197 0 0 0
10 4 2 -1.1794 1.742371422356492 3.9711784501130474 3.851680782990784 0 0 0
11 4 1 0.5897 1.4372411469823405 3.2583811428413227 3.290437703361179 0 0 0
18 6 1 0.5897 4.628127726846481 2.749048821746918 3.5495693353338247 0 0 0
236 79 1 0.5897 0.8376424112193152 0.01834064967254495 1.65178004993146 0 1 0
23 8 1 0.5897 2.8822254121816213 0.3698958556742707 4.403331826811631 0 0 0
32 11 1 0.5897 0.18511569203494 2.0612718801723946 1.7263933572983228 0 0 0
5 2 1 0.5897 4.4325968518024235 0.3340325151017091 2.880607636589325 0 0 0
22 8 2 -1.1794 2.178515128158822 0.2410533235250062 5.039310557972768 0 0 0
27 9 1 0.5897 2.828465633134978 4.302088040139345 6.425167908214895 0 0 0
356 119 1 0.5897 1.5730891286765725 2.049182118315743 8.44567831576342 0 0 0
355 119 2 -1.1794 0.874089987437622 2.124687866933273 9.09528906120585 0 0 0
325 109 2 -1.1794 2.7083133643199337 2.288529219228212 6.832481877943989 0 0 0
326 109 1 0.5897 2.517536364357202 1.4782650912928157 6.360035923119552 0 0 0
327 109 1 0.5897 3.597623213503185 2.1685246758792776 7.165475215099284 0 0 0
342 114 1 0.5897 4.379379745463932 4.0274409171114005 10.128934760918087 0 0 0
357 119 1 0.5897 0.1764942750426163 2.5989762606230884 8.642954949441219 0 0 0
330 110 1 0.5897 4.08853068918795 -0.047280480999327135 9.994061222013963 0 0 0
561 187 1 0.5897 1.187890216219642 -0.007205508496185939 8.758357449668585 0 1 0
102 34 1 0.5897 0.5404574139918779 0.386887807417828 5.390397498932951 1 0 0
350 117 1 0.5897 2.362206570979709 4.354048755594611 14.095075955294593 0 0 0
651 217 1 0.5897 1.9056271891920342 2.1872957299225018 15.038155423062742 0 0 0
650 217 1 0.5897 2.185038165703977 1.9715920034065206 13.56581508099391 0 0 0
348 116 1 0.5897 1.930547023576165 0.7222494810812699 11.504922003051632 0 0 0
347 116 1 0.5897 0.6159495354472316 0.735717023678875 12.255617592172408 0 0 0
649 217 2 -1.1794 2.2717302387416143 2.6185379536720346 14.26595700866625 0 0 0
683 228 1 0.5897 4.101359332930259 2.931699909533326 14.40214032173932 0 0 0
346 116 2 -1.1794 1.5628654733495972 0.6919291806184833 12.388271585538572 0 0 0
334 112 2 -1.1794 1.4730407939644252 4.038000059387676 10.984742451480319 0 0 0
340 114 2 -1.1794 4.264244981872386 3.4154372536296007 10.855878670925586 0 0 0
329 110 1 0.5897 4.445901550643889 0.7179265062387052 11.250598471695909 0 0 0
336 112 1 0.5897 2.3686765413747906 3.863667387161142 11.273919760056438 0 0 0
328 110 2 -1.1794 3.8524959251881015 0.7304760038687843 10.499555529919348 0 0 0
341 114 1 0.5897 4.33704670513198 2.5496941578970542 10.45428448100823 0 0 0
335 112 1 0.5897 1.2624794783638311 3.308142575999634 10.402392930530855 0 0 0
659 220 1 0.5897 0.951844885041333 4.264263334013094 18.468028214155552 0 0 0
653 218 1 0.5897 3.277833596637407 0.7763612408272816 17.40616945590958 0 0 0
665 222 1 0.5897 3.2975307650221186 3.8725060806157154 17.762380817396124 0 0 0
884 295 1 0.5897 0.4729023352966034 -0.03520227507208254 15.840096616683473 0 1 0
681 227 1 0.5897 0.6761076359617343 2.7750486910207606 16.628743472965642 0 0 0
652 218 2 -1.1794 4.040515183532918 1.1603795360701243 16.97369346377712 0 0 0
664 222 2 -1.1794 4.210982419556536 3.792847979580195 17.487706903630563 0 0 0
670 224 2 -1.1794 1.9389294173320004 0.46666976572509755 18.541292616555452 0 0 0
658 220 2 -1.1794 1.4024714213507699 4.150213317459032 17.631180474142315 0 0 0
666 222 1 0.5897 4.260748488163781 2.9353469303158035 17.0654711171931 0 0 0
671 224 1 0.5897 2.065374871590954 1.061770286658323 19.2803161918772 0 0 0
672 224 1 0.5897 0.9951591522890544 0.47863441436796395 18.382263257795696 0 0 0
654 218 1 0.5897 4.22064985563225 0.5737399101118743 16.239092496235887 0 0 0
2 1 1 0.5897 2.46631869501456 3.0543840464156777 20.3204708346833 0 0 -1
1 1 2 -1.1794 2.6019041098075157 2.154337255996461 20.61646368060708 0 0 -1
679 227 2 -1.1794 0.4238393337556068 1.9659260240456744 16.183979505019657 0 0 0
660 220 1 0.5897 1.135114588790112 4.9068319200178045 17.109432177161015 0 0 0
673 225 2 -1.1794 2.6290011234052857 4.890668092214076 20.25748035226956 0 0 0
3 1 1 0.5897 3.5525243848182155 2.06394151443904 20.682153886268875 0 0 -1
674 225 1 0.5897 1.9985373013522798 4.976335510347139 0.06859694573249278 0 0 1
19 7 2 -1.1794 1.144341480568504 5.509674462485874 1.5792630688510123 0 0 0
141 47 1 0.5897 0.8683009538796806 7.610991904959732 1.77635313171034 0 0 0
112 38 2 -1.1794 4.342253176225266 7.748442793568223 3.002116832620099 0 0 0
110 37 1 0.5897 2.08859063967455 9.159330055930056 0.5333189736920315 0 0 0
114 38 1 0.5897 3.6606596718306332 7.604520841498194 3.658629813854435 0 0 0
139 47 2 -1.1794 0.7902566766341306 8.527532954806285 1.51192907311563 0 0 0
21 7 1 0.5897 0.18867698419249718 5.481527850147784 1.624460311930634 0 0 0
13 5 2 -1.1794 4.8224624549243895 5.589619518052834 1.3607933966937058 0 0 0
126 42 1 0.5897 4.145614734457718 9.486317727986938 3.0441980412750422 0 0 0
15 5 1 0.5897 4.538861287050017 6.21869298992669 2.0241684344674438 0 0 0
14 5 1 0.5897 4.04530075103227 5.442423145275122 0.8217276218753965 0 0 0
140 47 1 0.5897 0.8550605664747979 9.019659584151336 2.330437402850566 0 0 0
132 44 1 0.5897 1.510906744031499 7.482462270722035 4.902649628487515 0 0 0
130 44 2 -1.1794 2.465015032803252 7.458345638894388 4.975150884001532 0 0 0
111 37 1 0.5897 3.570628745964703 9.372071494487345 0.3097861468643818 0 0 0
20 7 1 0.5897 1.4354926388295204 5.010824545888771 2.342611273265257 0 0 0
131 44 1 0.5897 2.6717433671562496 6.534438405935253 5.115403936164585 0 0 0
433 145 2 -1.1794 2.5023354184409117 8.837411189884055 7.253083246132367 0 0 0
26 9 1 0.5897 2.286837899891293 5.34913414762957 7.37498806988544 0 0 0
339 113 1 0.5897 4.069124668747371 5.065035754562607 8.238694395715234 0 0 0
344 115 1 0.5897 1.0415216434397436 5.0235061330695485 9.507809350736773 0 0 0
437 146 1 0.5897 3.9618734436265193 6.949683350711102 9.674881341667488 0 0 0
337 113 2 -1.1794 4.642225135597958 5.383681017373682 8.93606141259662 0 0 0
345 115 1 0.5897 0.8474846381023412 6.447471089924538 9.032302320701222 0 0 0
435 145 1 0.5897 2.53078001607897 8.239492255474794 6.506105834619781 0 0 0
464 155 1 0.5897 1.2961713824967445 8.538678162235163 8.60150554537186 0 0 0
463 155 2 -1.1794 0.5656944263263075 8.307561663382954 9.175308199803057 0 0 0
436 146 2 -1.1794 3.5876756001853125 7.680713455350325 10.166511246803141 0 0 0
343 115 2 -1.1794 0.7007010922604506 5.537223742433845 8.775552701139363 0 0 0
25 9 2 -1.1794 3.015896295530973 5.170589655631934 6.780960797918213 0 0 0
468 156 1 0.5897 4.296537349593443 8.921428875034703 7.372778983161992 0 0 0
434 145 1 0.5897 2.56150841040153 9.709965840539663 6.864170441114081 0 0 0
438 146 1 0.5897 3.9863192100832574 8.4596232077319 9.778627214500824 0 0 0
757 253 2 -1.1794 2.3560494725917907 9.429336184325587 14.087636121460214 0 0 0
792 264 1 0.5897 4.319670272494464 8.91775145213349 14.396663535978682 0 0 0
454 152 2 -1.1794 1.7357695562559081 7.23456179621375 12.14242474987192 0 0 0
455 152 1 0.5897 2.3712904275096878 7.306817396318805 11.43023990566755 0 0 0
456 152 1 0.5897 1.978219047289528 6.429469062644151 12.599771172640102 0 0 0
759 253 1 0.5897 2.0439714028198996 8.790153567529243 13.44710174951494 0 0 0
349 117 2 -1.1794 2.3819200674831604 5.302511246011679 13.968332578395113 0 0 0
789 263 1 0.5897 1.3470574242191926 8.994273512818642 15.468062396845404 0 0 0
668 223 1 0.5897 0.8181597897201441 5.771054554919695 14.90514068735362 0 0 0
351 117 1 0.5897 3.16325001242617 5.59139646020567 14.439811855496215 0 0 0
461 154 1 0.5897 4.834719033268356 7.448218188108696 11.362385056708822 0 0 0
533 178 1 0.5897 0.0009276830831339566 7.43177488917334 12.0328939273824 1 0 0
443 148 1 0.5897 1.0931685329557206 9.845387203857914 10.369820120270289 0 0 0
858 286 1 0.5897 0.22268334858540623 7.587717615842911 18.910001900615658 1 0 0
780 260 1 0.5897 2.6370903603383584 7.470348548532152 18.41828213487717 0 0 0
778 260 2 -1.1794 1.9921431750399319 7.420123992477836 19.123854887202864 0 0 0
675 225 1 0.5897 2.5256668961422277 5.694798748937738 19.74870926256953 0 0 0
779 260 1 0.5897 2.256332653382009 8.103508398217656 19.73978783065942 0 0 0
760 254 2 -1.1794 3.789318916461403 8.139551275987483 17.219050152647668 0 0 0
669 223 1 0.5897 0.6079967800952047 6.821058472802507 15.97531044878653 0 0 0
788 263 1 0.5897 0.7611538792394542 9.407351738686284 16.801602431946332 0 0 0
761 254 1 0.5897 3.711077375651102 9.057813456046365 16.96071523585543 0 0 0
787 263 2 -1.1794 0.6933753545951062 8.739478023266537 16.1192688117321 0 0 0
662 221 1 0.5897 4.095643258971442 5.214695416401402 16.268215081691082 0 0 0
667 223 2 -1.1794 0.4333349486654109 5.902296988524801 15.771785968650619 0 0 0
109 37 2 -1.1794 2.7229293524529252 9.42816825086665 20.772848906235016 0 0 -1
661 221 2 -1.1794 4.2494014453729365 5.978648092759309 15.712438142286535 0 0 0
663 221 1 0.5897 4.049807100291286 6.727721274007125 16.27390247875792 0 0 0
762 254 1 0.5897 4.517168453622852 8.126229586535905 17.84061663507396 0 0 0
124 42 2 -1.1794 4.107586633695703 10.408119385902758 3.29894805169591 0 0 0
121 41 2 -1.1794 4.329098630675324 12.531554440040004 1.5656819763538754 0 0 0
120 40 1 0.5897 0.976385054464278 11.148037713424468 2.611746613796266 0 0 0
119 40 1 0.5897 2.1206962071080464 10.64802598071357 3.4675802590373186 0 0 0
122 41 1 0.5897 3.770213095235827 12.357143814037778 0.8083414334358168 0 0 0
123 41 1 0.5897 4.321083602165249 11.71400582639007 2.063344264449872 0 0 0
118 40 2 -1.1794 1.1754275988730045 10.563471820074675 3.3431512555982725 0 0 0
222 74 1 0.5897 4.040097332167679 13.953992460527035 2.5720473099138994 0 0 0
129 43 1 0.5897 0.8152805084699405 13.362210401189062 1.657939981171991 0 0 0
240 80 1 0.5897 2.5693332612856072 13.837985294123396 4.313437539087954 0 0 0
783 261 1 0.5897 1.9043768809317445 12.367131813772186 0.12651842729879198 0 0 1
127 43 2 -1.1794 0.6260186115262011 12.446393333629485 1.454209188147558 0 0 0
220 74 2 -1.1794 3.907103505897194 14.518212485452233 3.333766699243039 0 0 0
238 80 2 -1.1794 1.991949400836754 13.669440596615912 5.058090857057352 0 0 0
125 42 1 0.5897 4.488397680025981 10.43043986897249 4.176959872733743 0 0 0
133 45 2 -1.1794 2.460199807655178 11.605454471226986 6.646149524111048 0 0 0
134 45 1 0.5897 1.6970580166661793 11.831025558729658 7.178112954340138 0 0 0
135 45 1 0.5897 3.1986006160692564 12.00830059994703 7.102953776470145 0 0 0
445 149 2 -1.1794 4.489170208494821 12.703927420637916 7.990321578869537 0 0 0
451 151 2 -1.1794 1.1331968145296274 12.52896783315246 8.729311142165779 0 0 0
239 80 1 0.5897 2.360561534990494 12.891450091049308 5.476325217414675 0 0 0
573 191 1 0.5897 0.9544201888103949 14.714096374353048 9.868825863192031 0 0 0
453 151 1 0.5897 1.1523695538455547 11.803919956525 9.353910852169513 0 0 0
450 150 1 0.5897 4.454364952496354 11.24243642813426 9.486123951620575 0 0 0
544 182 2 -1.1794 3.8569788188132312 14.35732154876922 10.240602211962393 0 0 0
446 149 1 0.5897 4.092874239315515 13.455904698730407 8.430350039835217 0 0 0
543 181 1 0.5897 2.137073958216889 14.82347655294328 6.4749319593530945 0 0 0
452 151 1 0.5897 0.21804895139429925 12.808978880906118 8.714780517181373 0 0 0
448 150 2 -1.1794 4.162846342221009 10.560242771685289 10.090972764156632 0 0 0
542 181 1 0.5897 1.6888264715511105 15.023442022556418 7.907201362605813 0 0 0
317 106 1 0.5897 0.257331106937171 13.957752714809288 5.19275217920483 1 0 0
563 188 1 0.5897 1.7224061577913004 13.878447321097026 12.4744076868391 0 0 0
546 182 1 0.5897 4.684696446786195 14.055933728467856 10.615097575817542 0 0 0
562 188 2 -1.1794 1.4816492799062686 14.683695905110394 12.016455081065219 0 0 0
769 257 2 -1.1794 4.376051545462083 12.645913081031708 15.30963333777217 0 0 0
457 153 2 -1.1794 2.325757084981649 12.571535047134287 13.383283135730352 0 0 0
458 153 1 0.5897 1.6512395627924499 12.597387024621472 14.0619967635668 0 0 0
459 153 1 0.5897 3.141970568001381 12.752852333224352 13.849262963259266 0 0 0
449 150 1 0.5897 4.508473219443173 10.830034141217268 10.941940026647531 0 0 0
442 148 2 -1.1794 1.3743444830507883 10.668684958465859 10.768829065426228 0 0 0
444 148 1 0.5897 2.316460886489296 10.705801796053482 10.603900254599393 0 0 0
758 253 1 0.5897 2.743736292505648 10.12768963816673 13.56023551058705 0 0 0
545 182 1 0.5897 3.1913534419132743 14.064838529264609 10.863224447408598 0 0 0
870 290 1 0.5897 4.714700284071267 14.54381752128227 17.761924459286394 0 0 0
965 322 1 0.5897 0.15797427132119024 14.63391454436348 18.73854860334953 1 0 0
768 256 1 0.5897 0.8642157176544609 11.55774245352672 17.11944047169898 0 0 0
886 296 2 -1.1794 1.9689175496663154 14.292600103185965 18.711278708717217 0 0 0
767 256 1 0.5897 0.4633528710028556 11.37949333466 18.568557001864 0 0 0
869 290 1 0.5897 3.2162195838495746 14.549332475775726 17.54683046200406 0 0 0
772 258 2 -1.1794 3.5542089806572097 10.815123946407198 17.109288553952723 0 0 0
888 296 1 0.5897 2.2115287718746153 13.518146710250152 19.21874195568748 0 0 0
766 256 2 -1.1794 0.9365266724298721 10.950284037028524 17.855681483137253 0 0 0
773 258 1 0.5897 2.6433738971579457 11.060546630170407 17.27148789212743 0 0 0
774 258 1 0.5897 3.8994631641410185 11.52128456935213 16.563103370758625 0 0 0
868 290 2 -1.1794 4.0444187636872515 14.746164454378203 17.10918198633708 0 0 0
777 259 1 0.5897 0.6885198484973142 13.853572673363447 15.70298039494264 0 0 0
782 261 1 0.5897 2.5198399220003913 11.365513359963925 20.076772650528227 0 0 0
781 261 2 -1.1794 2.552683139883354 12.287665698580415 20.33080276199352 0 0 0
775 259 2 -1.1794 0.6959256103610323 12.897578367013528 15.657866183298426 0 0 0
771 257 1 0.5897 4.387105856717594 13.448593296082798 15.8309166780588 0 0 0
765 255 1 0.5897 4.8208776512350004 11.099454591088755 18.8755095632439 0 0 0
887 296 1 0.5897 2.2162410228080343 15.031076658069903 19.267757138755005 0 0 0
227 76 1 0.5897 1.086370273332938 18.30574182819486 2.9115898724469664 0 0 0
234 78 1 0.5897 3.1077283680778924 17.27288604213412 3.322604237420531 0 0 0
248 83 1 0.5897 1.01487076763671 15.658048233496258 2.686375671890427 0 0 0
235 79 2 -1.1794 0.7364264008751424 19.351448350916353 1.4308230167427671 0 0 0
226 76 2 -1.1794 1.2159313510042835 17.619665708697596 3.5663783321825386 0 0 0
249 83 1 0.5897 1.9156648273549584 15.442935323351806 1.488676931377511 0 0 0
232 78 2 -1.1794 4.060551999456275 17.21277046694533 3.2543131228172197 0 0 0
890 297 1 0.5897 2.2161805950059867 19.040594480932885 0.23236813432656223 0 0 1
233 78 1 0.5897 4.322852254744667 18.02998540136234 2.830664735160972 0 0 0
221 74 1 0.5897 3.855141204046035 15.402439259263343 2.971083733265881 0 0 0
228 76 1 0.5897 0.7833733555608385 17.95313413486437 4.352495274440928 0 0 0
230 77 1 0.5897 4.201623783977458 19.100105445289852 0.6883143795293006 0 0 0
229 77 2 -1.1794 4.606701321661525 19.332948246945083 1.523829385065913 0 0 0
247 83 2 -1.1794 1.1164995603444756 15.117501904609007 1.9029452590473253 0 0 0
241 81 2 -1.1794 2.5498607074896933 18.07304256222927 6.356696772950059 0 0 0
551 184 1 0.5897 0.708152685756287 18.265081838687255 10.155440744942066 0 0 0
243 81 1 0.5897 1.9883964373626637 18.543439302914315 6.972920962415416 0 0 0
558 186 1 0.5897 4.022439228815168 17.64918702604446 9.793967785251748 0 0 0
24 8 1 0.5897 2.3226679359150397 19.617662734482533 5.381322926994658 0 -1 0
572 191 1 0.5897 0.5488632393947956 16.171223927317897 9.929191090097168 0 0 0
242 81 1 0.5897 2.4318613910273053 17.150130571392133 6.581123417600369 0 0 0
559 187 2 -1.1794 0.9109938158425671 19.34575475443592 8.621386655960107 0 0 0
576 192 1 0.5897 3.9385099511295216 15.954694085688029 7.493846346918756 0 0 0
541 181 2 -1.1794 2.2648375176011477 15.389660391092246 7.23612713387859 0 0 0
555 185 1 0.5897 4.344482354896822 18.57932734816377 7.64502944310203 0 0 0
553 185 2 -1.1794 4.704978880930202 18.87899198270192 8.479616787422819 0 0 0
571 191 2 -1.1794 0.4801346515846394 15.388483892543748 9.382614640707713 0 0 0
560 187 1 0.5897 -0.02109165406429559 19.408597455306246 8.412970572795125 0 0 0
574 192 2 -1.1794 4.884472711987727 15.824813065276734 7.560198414300592 0 0 0
557 186 1 0.5897 3.973494912641212 16.215652366960526 10.277791834629607 0 0 0
885 295 1 0.5897 0.7829974468048968 19.026508178226365 14.966886693398042 0 0 0
552 184 1 0.5897 1.5971315065148761 17.59760512088596 11.183161121939733 0 0 0
567 189 1 0.5897 2.248034700961583 19.837495779980543 13.412496897782223 0 0 0
565 189 2 -1.1794 2.699284358107969 19.284642659660534 14.050433609463447 0 0 0
566 189 1 0.5897 2.545003626472091 18.390840013490184 13.744835084902395 0 0 0
879 293 1 0.5897 4.453427471947858 18.993564144814012 14.989105908042676 0 0 0
867 289 1 0.5897 1.8928395155643216 16.29495503880912 14.510818879459414 0 0 0
865 289 2 -1.1794 2.3498247802092838 16.579012168175073 13.719096821209693 0 0 0
550 184 2 -1.1794 0.6806074821506582 17.69782199192099 10.926006781831529 0 0 0
866 289 1 0.5897 3.2785225673545964 16.509514321822156 13.940161189821374 0 0 0
564 188 1 0.5897 1.7092484925599507 15.384341147145866 12.627611643243512 0 0 0
556 186 2 -1.1794 3.8747290365736062 17.11929908128711 10.577365184076212 0 0 0
891 297 1 0.5897 2.477772363069562 19.479424256907706 19.711180681465333 0 0 0
876 292 1 0.5897 0.6986467592663862 18.272740615004835 17.19251566974638 0 0 0
874 292 2 -1.1794 0.7792915894254223 17.559683637500022 17.825954134702755 0 0 0
882 294 1 0.5897 3.6441036594291196 16.594336556840105 17.195433577873093 0 0 0
880 294 2 -1.1794 3.452588364146623 17.48241410910363 17.496585360346536 0 0 0
881 294 1 0.5897 2.510302710400469 17.48085513743296 17.664632219582717 0 0 0
873 291 1 0.5897 4.767317411640676 18.122712927628935 18.687756648848985 0 0 0
897 299 1 0.5897 0.5319925794247551 16.228455122454097 16.415053884107277 0 0 0
878 293 1 0.5897 4.460321675182611 18.6309536306947 16.459093819685467 0 0 0
875 292 1 0.5897 0.3025830196068871 17.86803381605983 18.59665122820018 0 0 0
218 73 1 0.5897 2.590415514896469 16.916127191167906 20.502618919020808 0 0 -1
889 297 2 -1.1794 2.643386137011246 18.764345802407426 20.325538611349973 0 0 0
219 73 1 0.5897 3.704159477595292 15.913767231706842 20.718128127419952 0 0 -1
883 295 2 -1.1794 0.2358122328812916 19.306920751862748 15.70056259766793 0 0 0
217 73 2 -1.1794 2.751055829795498 16.000798957790973 20.73159411434973 0 0 -1
895 299 2 -1.1794 0.5402839871325807 15.549849199133861 15.740016897810607 0 0 0
68 23 1 0.5897 8.131028529515726 2.1759511822637636 1.2966741477940984 0 0 0
69 23 1 0.5897 6.67541706153375 1.893003960450327 1.6014429638818215 0 0 0
67 23 2 -1.1794 7.5460084913041525 1.8923970012602602 1.999288735021246 0 0 0
46 16 2 -1.1794 8.100393772303159 3.9857867097764013 3.884255437865665 0 0 0
47 16 1 0.5897 7.7898113161709786 3.2371303757941168 3.3752469657878104 0 0 0
9 3 1 0.5897 5.456218587230501 4.241400392851944 5.11840067331 0 0 0
59 20 1 0.5897 9.634471821461357 0.7591527866898529 4.277489567727055 0 0 0
48 16 1 0.5897 7.427458301528753 4.117884121556367 4.552078129733693 0 0 0
34 12 2 -1.1794 5.54300966716963 2.1776401246089043 0.1276806075532602 0 0 0
6 2 1 0.5897 5.000894276497594 0.7881096378155176 4.208435961276981 0 0 0
53 18 1 0.5897 9.875300124195608 3.9690752847219253 3.6390713241743198 0 0 0
58 20 2 -1.1794 8.927261230791672 0.8575498633979842 4.915031129038892 0 0 0
29 10 1 0.5897 7.1941851333264735 0.47941627139616294 5.115275766210508 0 0 0
710 237 1 0.5897 9.498340801733356 4.520764949462454 0.011806812707732206 0 0 1
36 12 1 0.5897 5.748051516183783 3.1110785222220527 0.07581012003483778 0 0 0
37 13 2 -1.1794 9.323636060562231 2.494190034191642 -0.0026655153280934485 0 0 0
391 131 2 -1.1794 7.488703808946628 1.6813501666680153 9.059762581581213 0 0 0
359 120 1 0.5897 5.639601087180819 1.5803868090485949 6.6892075357036225 0 0 0
358 120 2 -1.1794 5.415318278844288 2.2550037104412035 7.330163512533646 0 0 0
392 131 1 0.5897 8.130312127722782 1.981578627678926 8.415957651533853 0 0 0
360 120 1 0.5897 5.984976605749858 2.0746095123219845 8.07800793362396 0 0 0
60 20 1 0.5897 9.111631108283914 1.68913635941476 5.351604460734204 0 0 0
393 131 1 0.5897 7.481081437956828 0.7290172756423621 8.964755795677936 0 0 0
361 121 2 -1.1794 9.165197224065434 2.845132616234722 6.74090881267511 0 0 0
362 121 1 0.5897 9.250429901329978 3.7869788478983573 6.593588080125339 0 0 0
8 3 1 0.5897 5.870912884838209 3.6096486120305227 6.430326353718268 0 0 0
7 3 2 -1.1794 6.1143172424245975 4.297915523884114 5.811244796101179 0 0 0
28 10 2 -1.1794 6.305389404933454 0.2075728680131973 5.343960290767267 0 0 0
371 124 1 0.5897 7.719071638792631 3.328284429942394 10.298221075880264 0 0 0
377 126 1 0.5897 9.79538873938336 3.885100711565771 10.648016825565906 0 0 0
686 229 1 0.5897 8.790453687074404 2.630587858496113 15.26940786802282 0 0 0
684 228 1 0.5897 5.1982133448127845 3.598006522283458 13.599165290676508 0 0 0
352 118 2 -1.1794 5.723620945129234 0.732114277579981 12.595449884881457 0 0 0
386 129 1 0.5897 8.845292715264797 4.58334766069934 13.868441271247562 0 0 0
685 229 2 -1.1794 9.339692717895808 2.6608791479343816 14.485974614050248 0 0 0
382 128 2 -1.1794 8.502725421190624 0.8625806603067383 12.48203229120236 0 0 0
384 128 1 0.5897 8.873231905095018 1.0757264364821202 11.625493062981251 0 0 0
372 124 1 0.5897 7.585655043292888 4.341458747090609 11.415153968187202 0 0 0
383 128 1 0.5897 8.937695292534611 1.462571794231604 13.087874124257835 0 0 0
370 124 2 -1.1794 8.046166091033115 4.178435869990594 10.59192858424618 0 0 0
353 118 1 0.5897 6.626721015272428 0.9969395729666046 12.421035574101758 0 0 0
354 118 1 0.5897 5.368715484482456 1.4340645503737934 13.140874940351745 0 0 0
682 228 2 -1.1794 5.0378614170092995 2.8798427906940267 14.211314404436727 0 0 0
331 111 2 -1.1794 6.093290524540187 4.634062619627606 12.359875488158984 0 0 0
332 111 1 0.5897 5.520768291064503 4.21774171909251 11.715539090891415 0 0 0
717 239 1 0.5897 6.362698505804858 2.4148958056344894 15.543833764098515 0 0 0
657 219 1 0.5897 6.765285656778257 4.542882640135202 19.139169179503387 0 0 0
694 232 2 -1.1794 8.076586266096953 4.479243325243037 17.762505473581232 0 0 0
656 219 1 0.5897 5.316910697594663 4.267324126157808 18.79569791095072 0 0 0
689 230 1 0.5897 9.986793807278435 1.1312541728536718 17.437130032473313 0 0 0
706 236 2 -1.1794 8.84685916636731 0.7497020732736308 18.68271201238332 0 0 0
677 226 1 0.5897 5.375925106292038 1.0699081581225824 18.22063016858862 0 0 0
708 236 1 0.5897 7.894673187810573 0.8026177967549204 18.60082072132232 0 0 0
676 226 2 -1.1794 6.048080067737995 0.7972594433725989 18.845246369587844 0 0 0
655 219 2 -1.1794 5.890105097793572 4.504032613812711 19.524871230448138 0 0 0
695 232 1 0.5897 7.8246945124393905 3.6098591992059905 17.45137246810486 0 0 0
716 239 1 0.5897 7.225802135025592 1.42766642894489 16.300240536528378 0 0 0
715 239 2 -1.1794 6.964281095086242 2.3482215415037495 16.2854387501666 0 0 0
38 13 1 0.5897 9.002730223778418 2.023258159867507 20.132271971517607 0 0 -1
702 234 1 0.5897 9.994421930589189 4.307721001078914 17.827314460908653 0 0 0
707 236 1 0.5897 9.000113305297786 -0.04637796550721224 19.191527174909815 0 0 0
35 12 1 0.5897 5.785336678141046 1.8306796261790341 20.173087784576833 0 0 -1
56 19 1 0.5897 6.502758502950594 5.788870854992307 1.609350629559416 0 0 0
55 19 2 -1.1794 7.443796098363465 5.903626736019658 1.741425466499496 0 0 0
177 59 1 0.5897 8.188116059378865 9.050563499174554 1.398077161462991 0 0 0
175 59 2 -1.1794 7.772374240722624 8.756232073812061 2.2085637155541185 0 0 0
57 19 1 0.5897 7.651305553593707 5.3433547283922875 2.4892921726123602 0 0 0
176 59 1 0.5897 7.725730755787657 7.8041796175864375 2.122220944706298 0 0 0
166 56 2 -1.1794 9.032386579969959 7.578146463989311 4.788885838716465 0 0 0
143 48 1 0.5897 6.398903343428968 9.113727193990767 1.0999959011723681 0 0 0
711 237 1 0.5897 8.81148291549681 5.7984011317912625 0.44472534417356613 0 0 1
142 48 2 -1.1794 5.801875770516305 9.177866806801603 0.35448920615277163 0 0 0
113 38 1 0.5897 5.163685516734182 7.643255157244787 3.4821450082900745 0 0 0
147 49 1 0.5897 9.888502557897846 9.162081437950226 0.03143387153823621 0 0 0
709 237 2 -1.1794 9.542604741607514 5.472406145966257 -0.08008965785962714 0 0 1
136 46 2 -1.1794 6.131252981275535 7.2596643973206065 5.089809184172864 0 0 0
138 46 1 0.5897 7.069027505296892 7.364855172428475 4.929663345448929 0 0 0
501 167 1 0.5897 6.654303851173032 8.650909747149733 8.437635499574366 0 0 0
467 156 1 0.5897 5.521401980129459 8.335640453912545 6.703161806665237 0 0 0
380 127 1 0.5897 7.520361160523871 6.788517592795576 8.60095134647754 0 0 0
381 127 1 0.5897 7.630122724126486 5.417909592893214 9.234157787891435 0 0 0
499 167 2 -1.1794 7.516512988704004 8.56864914323894 8.84511908768049 0 0 0
471 157 1 0.5897 8.833989945478898 8.904135788419756 7.623255414584039 0 0 0
466 156 2 -1.1794 5.253250118403739 8.938968463468274 7.396238584066306 0 0 0
338 113 1 0.5897 5.500334636807013 5.469686489487493 8.520801932087497 0 0 0
62 21 1 0.5897 8.674410265798743 5.551770267845735 7.34607857357456 0 0 0
500 167 1 0.5897 7.551855516930478 9.285093937784382 9.478901194347333 0 0 0
469 157 2 -1.1794 9.343467922794439 9.24205444019038 6.88666821634821 0 0 0
379 127 2 -1.1794 7.38575068257595 5.858339809487001 8.420124505691279 0 0 0
61 21 2 -1.1794 9.422754259648764 5.603735125849708 6.75150789147831 0 0 0
167 56 1 0.5897 9.15703279862655 6.811083545092602 5.34767839718619 0 0 0
137 46 1 0.5897 6.0690888930968905 6.489577676886123 5.654777599336529 0 0 0
168 56 1 0.5897 9.287840507682448 8.319128957197483 5.338310018464144 0 0 0
790 264 2 -1.1794 5.1954393629929765 8.892437501233987 14.011227463261523 0 0 0
793 265 2 -1.1794 9.190589804738968 9.205778777173284 14.403358655006532 0 0 0
794 265 1 0.5897 9.185596448921157 8.469388839274105 13.791897939414993 0 0 0
460 154 2 -1.1794 5.62494820786676 7.298265867601108 11.88132943650616 0 0 0
791 264 1 0.5897 5.7887261262921745 8.971572522974265 14.758262098732295 0 0 0
462 154 1 0.5897 5.507363440907128 7.841915282268138 12.660383871749913 0 0 0
490 164 2 -1.1794 8.593995687992287 7.441582562853164 12.247414323788602 0 0 0
387 129 1 0.5897 8.777408402068371 6.05118474081339 13.504739359426745 0 0 0
492 164 1 0.5897 7.757080243747889 7.551930450259153 11.796164024139602 0 0 0
385 129 2 -1.1794 9.134487969957782 5.4487673995965835 14.157297724881198 0 0 0
491 164 1 0.5897 9.25338628141202 7.623627716834003 11.577809256497053 0 0 0
333 111 1 0.5897 5.8419721797717825 5.55740713881029 12.342976719431286 0 0 0
795 265 1 0.5897 8.887850888111721 9.950680702966029 13.884084077728906 0 0 0
705 235 1 0.5897 7.645284187404705 5.929686010523147 15.15799792327897 0 0 0
815 272 1 0.5897 8.92327010758958 6.304248966106417 19.28405817134704 0 0 0
785 262 1 0.5897 5.954461668047313 6.544656195728556 19.188097271166622 0 0 0
816 272 1 0.5897 8.985743549108536 7.799591749175088 19.5108317578501 0 0 0
784 262 2 -1.1794 5.992386433440213 7.4914474766475205 19.053266150965893 0 0 0
696 232 1 0.5897 7.897459777117945 5.059885659012754 17.022868903038887 0 0 0
786 262 1 0.5897 6.875576888744541 7.651301204016292 18.72067185937292 0 0 0
814 272 2 -1.1794 8.81426584017232 7.142896490135758 18.83585339451043 0 0 0
824 275 1 0.5897 6.948207465335741 8.062190244238272 16.38757366673556 0 0 0
823 275 2 -1.1794 7.08910126454459 8.991479275722499 16.206963199067822 0 0 0
704 235 1 0.5897 6.232728427772457 6.054706621393706 15.687937395468316 0 0 0
144 48 1 0.5897 6.001454953651903 8.409202540242113 20.724275587738845 0 0 -1
703 235 2 -1.1794 7.137269007065194 6.303190420030528 15.878223403038799 0 0 0
145 49 2 -1.1794 8.972246916542176 9.185454078765877 20.659743450479095 0 0 -1
797 266 1 0.5897 9.975620836031375 7.936340635306367 17.586864186483755 0 0 0
825 275 1 0.5897 7.849516235280205 9.010468088497104 15.625861354551766 0 0 0
164 55 1 0.5897 6.138308352485826 12.849929764245154 1.8363150899117686 0 0 0
156 52 1 0.5897 9.005169110263932 11.181503658641317 3.9032668083888344 0 0 0
154 52 2 -1.1794 8.061332378606181 11.03439538627634 3.8426556312785594 0 0 0
165 55 1 0.5897 7.2941110780818 12.479283684103137 2.7411452073276035 0 0 0
274 92 2 -1.1794 8.466153193577004 13.97027569200558 4.912261587748475 0 0 0
163 55 2 -1.1794 7.0404996998940055 13.089161330671073 2.048330488964332 0 0 0
819 273 1 0.5897 8.121680250984005 12.339290641010642 0.46869724210255004 0 0 1
285 95 1 0.5897 7.218912794656976 14.816175599114507 1.82250616735004 0 0 0
246 82 1 0.5897 5.0369189002791135 14.566667149268635 4.942844767268491 0 0 0
155 52 1 0.5897 7.976502788090826 10.224052643794346 3.3403811707997786 0 0 0
170 57 1 0.5897 9.616150671282549 12.351404036798208 7.38140079961887 0 0 0
487 163 2 -1.1794 7.192372268871935 12.916761673894959 8.973563915780124 0 0 0
447 149 1 0.5897 5.430931502357103 12.822840420941285 8.113267662464537 0 0 0
169 57 2 -1.1794 8.918883241782044 11.994105909593324 6.831507079479795 0 0 0