LAMMPS data file via write_data, version 30 Jul 2021, timestep = 3750000

864 atoms
2 atom types
576 bonds
1 bond types
288 angles
1 angle types

0.053071969642880745 18.154500430361416 xlo xhi
0.17143579356441663 23.457742006439062 ylo yhi
-0.04612422680837369 22.259320026808922 zlo zhi

Masses

1 1.00794
2 15.9994

Atoms # full

707 1 1 0.5897 2.7270595058724294 1.8289708515227334 3.4031732698150563 0 0 0
706 1 2 -1.1794 2.7080682477392113 1.9232694170921032 2.4507994696923214 0 0 0
30 1 1 0.5897 5.181737361144475 3.7116334896908447 1.9905056924568552 0 0 0
708 1 1 0.5897 1.8702457739252591 2.348724637515789 2.268421194086649 0 0 0
29 1 1 0.5897 4.302766476984335 2.4829759910031206 1.8919129543824869 0 0 0
28 1 2 -1.1794 5.202217544206289 2.7827799669538513 1.760145244032593 0 0 0
495 1 1 0.5897 7.952391958333158 1.9678600872926375 2.725827391876923 0 0 0
136 1 2 -1.1794 5.420249902420611 5.456327255226339 2.902201064524232 0 0 0
846 1 1 0.5897 7.481579077191235 1.6414610199493407 4.897856946899101 0 0 0
494 1 1 0.5897 6.442528013542094 1.8736088373769801 2.6686673622776165 0 0 0
493 1 2 -1.1794 7.204464472118242 1.5390064725524142 3.141659645025325 0 0 0
137 1 1 0.5897 5.4784947359338 5.411550674802563 3.85659871042965 0 0 0
1 1 2 -1.1794 0.285242058072541 3.2624056310269145 1.85378301454006 0 0 0
3 1 1 0.5897 0.30024913715585316 4.0979676234068805 2.320540928938782 0 0 0
597 1 1 0.5897 0.76241430594132 5.740765274856674 4.278913048623982 0 0 0
595 1 2 -1.1794 0.8592447652579505 5.718606033396551 3.3268598355912276 0 0 0
188 1 1 0.5897 2.9984129714822263 0.2633572826745065 1.9809813014554534 0 1 0
138 1 1 0.5897 4.594877503955376 5.910663949509307 2.733186963382824 0 0 0
489 1 1 0.5897 3.045356597022931 1.1384338854510356 5.484653645387305 0 0 0
487 1 2 -1.1794 2.9728957162956577 2.0211933635358497 5.121674851265749 0 0 0
819 1 1 0.5897 7.476496323323545 0.19587021170463714 2.0761155307543264 0 0 0
20 1 1 0.5897 0.7980178559988743 3.30040081467459 -0.005148897845552891 0 0 0
845 1 1 0.5897 7.5486882865021645 0.9113571020108556 6.222400374618405 0 0 0
183 1 1 0.5897 0.7827738035156999 4.901579222219286 6.3786198308291056 0 0 0
83 1 1 0.5897 4.408718847194794 2.7628369303006206 6.1121715567698685 0 0 0
176 1 1 0.5897 8.506186201281583 2.7532398684257378 9.894000671476377 0 0 0
674 1 1 0.5897 3.3800695453932104 2.51328154195557 10.030859184633005 0 0 0
34 1 2 -1.1794 0.32822814683487445 3.360050162605413 9.449775726772678 0 0 0
786 1 1 0.5897 0.06546263447494775 2.8280792849970986 6.45552314039908 0 0 0
356 1 1 0.5897 7.409393367216814 1.076971927130181 10.140561025021311 0 0 0
844 1 2 -1.1794 7.541975862652561 1.789542983689971 5.841620673487387 0 0 0
84 1 1 0.5897 5.80861603578399 2.3115406898891084 6.470613699945605 0 0 0
355 1 2 -1.1794 7.167972052779563 1.9354002615731645 10.4885292307344 0 0 0
274 1 2 -1.1794 4.846225203847131 3.2296262142245338 9.49949823062586 0 0 0
678 1 1 0.5897 5.116556636555576 4.786455275660421 10.076446616377847 0 0 0
675 1 1 0.5897 2.8396236253095273 1.1073262292018073 9.878624333954116 0 0 0
36 1 1 0.5897 1.160894305016641 3.0256485141263783 9.783043911111095 0 0 0
673 1 2 -1.1794 2.6329166300232805 1.9605798904689342 10.2600477945936 0 0 0
686 1 1 0.5897 5.312616187911166 4.629562564980577 6.38457496383452 0 0 0
82 1 2 -1.1794 5.079859777207342 2.843727998544008 6.78986454237239 0 0 0
276 1 1 0.5897 5.594167304528618 2.747333709202285 9.851925707659495 0 0 0
35 1 1 0.5897 0.3587913589592274 4.300146264232709 9.627409362699971 0 0 0
275 1 1 0.5897 4.804952384815453 2.969479387344085 8.579220701419823 0 0 0
784 1 2 -1.1794 0.9554056691461146 2.9518044179123826 6.785554751874521 0 0 0
676 1 2 -1.1794 5.210800418006683 5.709393595153659 10.312150398771164 0 0 0
785 1 1 0.5897 0.8463243535186975 3.079454544216615 7.7279306307162985 0 0 0
112 1 2 -1.1794 0.37253075831783944 5.885482483431081 10.26020538511712 0 0 0
687 1 1 0.5897 4.4202124060890045 5.777701660459536 5.963505418987162 0 0 0
685 1 2 -1.1794 5.265707810282727 5.368914639761663 5.778425024948711 0 0 0
488 1 1 0.5897 2.299483974173622 2.4449652071187438 5.653841539554697 0 0 0
181 1 2 -1.1794 0.813539663260256 5.838459354559871 6.184806491843495 0 0 0
166 1 2 -1.1794 2.8336426174168214 1.7605230495161486 13.079512757705102 0 0 0
167 1 1 0.5897 2.8743956572415934 1.765888840800802 12.12316838900524 0 0 0
457 1 2 -1.1794 5.0404836339070735 3.3140803703404766 13.85089076840874 0 0 0
458 1 1 0.5897 5.835014096799648 2.794653470800492 13.727714331720845 0 0 0
459 1 1 0.5897 4.333426630300522 2.748391996482652 13.540553624215994 0 0 0
762 1 1 0.5897 5.172109097784736 4.995290861061471 13.190759886503253 0 0 0
466 1 2 -1.1794 0.5525617903112812 2.9885243434230526 13.964652884837381 0 0 0
168 1 1 0.5897 1.9587391234361704 2.090421966972566 13.284295951487602 0 0 0
594 1 1 0.5897 8.06611370455691 2.166606499248117 13.458743542817274 0 0 0
365 1 1 0.5897 0.8646456118840178 4.73464740395856 13.335511479753858 0 0 0
593 1 1 0.5897 7.301605057212276 0.8610923495028143 13.514527355686896 0 0 0
592 1 2 -1.1794 7.240553113895056 1.7609603046759046 13.193932734261818 0 0 0
468 1 1 0.5897 0.5115089194197153 3.0008001439695025 14.920916859829763 0 0 0
71 1 1 0.5897 5.247230398225298 3.414207830312784 15.635438305148824 0 0 0
737 1 1 0.5897 2.7666440454699184 0.17439956014141253 13.891931845029239 0 1 0
760 1 2 -1.1794 5.152906605755162 5.905119899012521 12.893940731785078 0 0 0
357 1 1 0.5897 7.166069422183201 1.817415693036516 11.438457692677984 0 0 0
364 1 2 -1.1794 0.708559434509092 5.609989589706047 12.98095140540958 0 0 0
113 1 1 0.5897 0.5303238477525634 5.739784486641732 11.193039862061706 0 0 0
761 1 1 0.5897 5.212549433308557 5.847750806489113 11.940289038290285 0 0 0
70 1 2 -1.1794 5.372789578459721 3.43124212847986 16.584233333043777 0 0 0
754 1 2 -1.1794 7.507962511300021 1.6465484815191016 17.325074537587913 0 0 0
291 1 1 0.5897 2.126648746880827 2.478033861757907 17.323611486621775 0 0 0
571 1 2 -1.1794 0.9062823116219346 5.883036742604552 17.521369321284904 0 0 0
755 1 1 0.5897 7.7258173432714505 1.786449235377005 18.246611067646967 0 0 0
278 1 1 0.5897 5.601796138608246 4.935674931010884 17.419218270686073 0 0 0
72 1 1 0.5897 4.530766403050193 3.1507187472426277 16.942818762321494 0 0 0
289 1 2 -1.1794 3.018095487574151 2.143971418087227 17.423319007055944 0 0 0
41 1 1 0.5897 7.256099672553136 2.183761486252447 20.766965684297908 0 0 0
143 1 1 0.5897 5.43309927574402 4.5371441613011205 20.584353824723134 0 0 0
569 1 1 0.5897 2.642581497967371 2.3217344642687343 20.684321525219296 0 0 0
667 1 2 -1.1794 5.662096390734074 2.876797970203977 21.28159025247039 0 0 0
570 1 1 0.5897 3.1663220240532994 2.003109835947201 19.300061877662245 0 0 0
40 1 2 -1.1794 8.03224662010997 1.9253204730716231 20.26993648442591 0 0 0
134 1 1 0.5897 0.6765613823463468 4.089332723195339 17.201596292361415 0 0 0
599 1 1 0.5897 9.028467877527234 2.868558471384248 17.04217101216715 0 0 0
42 1 1 0.5897 8.155865076924648 1.0000982178385989 20.48190166769554 0 0 0
568 1 2 -1.1794 3.35881989824945 1.8786285127098736 20.229436069988992 0 0 0
290 1 1 0.5897 2.94295863773995 1.2050148195038664 17.253127673071333 0 0 0
669 1 1 0.5897 4.919277529933398 2.414508365662721 20.89334129872953 0 0 0
81 1 1 0.5897 3.1823897949067184 0.22483528069830072 20.960195167402112 0 1 0
19 1 2 -1.1794 0.9789746838277249 3.085956805134469 21.38510211115265 0 0 0
646 1 2 -1.1794 1.3967980004529605 5.527620032878093 20.295664732183265 0 0 0
756 1 1 0.5897 6.8014666078998625 2.2677754299577835 17.148505949387935 0 0 0
648 1 1 0.5897 1.350103817822217 5.597479457381964 19.342130346919088 0 0 0
21 1 1 0.5897 1.2602847919781015 3.9139309089324117 20.995714749855775 0 0 0
277 1 2 -1.1794 5.669639674491972 5.838792284650992 17.729104312908493 0 0 0
133 1 2 -1.1794 0.6136470855829409 3.1751020598019792 16.9250251641628 0 0 0
144 1 1 0.5897 5.607131011817544 5.497221527733366 19.42677478583647 0 0 0
142 1 2 -1.1794 5.245053891589985 5.434927698684305 20.31067970371271 0 0 0
668 1 1 0.5897 5.429586141021775 2.9715900182414132 22.205287267800575 0 0 -1
773 1 1 0.5897 9.044106067099158 10.189890302869996 2.348593313033234 0 0 0
123 1 1 0.5897 3.003345933925913 8.570350362126955 2.872300092860592 0 0 0
121 1 2 -1.1794 3.095468199419042 9.502153741526195 3.0710884031721024 0 0 0
122 1 1 0.5897 3.201112958369029 9.535409306037927 4.0218841593510035 0 0 0
44 1 1 0.5897 1.3948128368862456 10.23081392228915 2.426826166111939 0 0 0
218 1 1 0.5897 6.036354096184719 10.26961010263353 1.9261358024499942 0 0 0
416 1 1 0.5897 6.8918725255141995 6.476593979658379 2.1790305026485206 0 0 0
219 1 1 0.5897 4.565491405149495 10.266389210958456 2.284488972385191 0 0 0
254 1 1 0.5897 3.1450656570938516 6.777182760635736 1.3358623545660773 0 0 0
415 1 2 -1.1794 7.603880782297433 7.041282028311253 1.8783632550500369 0 0 0
417 1 1 0.5897 8.40164184957036 6.580304760788568 2.1378001507231157 0 0 0
253 1 2 -1.1794 3.2088771855716103 6.744770356476274 2.2904046399131937 0 0 0
255 1 1 0.5897 2.339705564053063 6.467195448630307 2.5797581906896143 0 0 0
66 1 1 0.5897 7.416398116091656 9.483530365495689 3.9825506700364803 0 0 0
65 1 1 0.5897 7.455852075676148 8.702434204834665 2.686274188332033 0 0 0
64 1 2 -1.1794 7.402369789109967 9.593519938460386 3.03176908237615 0 0 0
217 1 2 -1.1794 5.184536173335363 10.590872940084187 1.6304672225591916 0 0 0
45 1 1 0.5897 0.8227412227575098 11.632281963642198 2.4032624261109623 0 0 0
43 1 2 -1.1794 0.8341163413520425 10.810969953437898 1.911761906139898 0 0 0
162 1 1 0.5897 7.430055954196347 7.259851959321912 -0.005683638322437901 0 0 1
11 1 1 0.5897 2.3473570000046995 6.715229200472658 6.174637345236251 0 0 0
10 1 2 -1.1794 3.194609143430391 7.0329382802349905 6.486798443817269 0 0 0
550 1 2 -1.1794 0.7609323718087324 10.95062583808394 6.808459584108082 0 0 0
580 1 2 -1.1794 5.026084224738605 11.104779671648192 9.742047408758365 0 0 0
526 1 2 -1.1794 7.2296006024423285 6.9159533370360595 9.213316688468145 0 0 0
713 1 1 0.5897 8.294176343450927 9.988367681444862 6.2064576610644515 0 0 0
145 1 2 -1.1794 7.5120374539212715 6.864878900123126 6.317202287757223 0 0 0
795 1 1 0.5897 3.7050864638615235 10.284619881116301 6.1744151123864155 0 0 0
651 1 1 0.5897 3.5506542835725217 6.832045408028318 10.070054396808883 0 0 0
712 1 2 -1.1794 7.466744238236596 9.732389948042663 5.798959295730294 0 0 0
650 1 1 0.5897 3.0612762983710375 6.953557347199061 8.642568702800794 0 0 0
794 1 1 0.5897 2.224715696264484 9.973307898547853 6.115321888178839 0 0 0
527 1 1 0.5897 7.041553985495124 7.814575157998224 9.484178656347682 0 0 0
15 1 1 0.5897 1.2042895359597303 10.535711684257894 9.837988648927537 0 0 0
582 1 1 0.5897 5.07774063480713 11.29103341334324 8.804516872097908 0 0 0
820 1 2 -1.1794 7.274214949163736 9.515764150316132 10.306450856792786 0 0 0
581 1 1 0.5897 5.841276842102266 10.6439936499603 9.94045086090474 0 0 0
147 1 1 0.5897 7.656111945881918 6.764406550139302 7.258171664314867 0 0 0
649 1 2 -1.1794 2.791862879037687 7.09645526574302 9.549906984149562 0 0 0
12 1 1 0.5897 3.1975315417345254 7.964484290359561 6.266656074742723 0 0 0
13 1 2 -1.1794 0.34175902410101255 10.901191801379673 9.641240490645748 0 0 0
258 1 1 0.5897 3.450554978977366 10.258943835442162 10.25773504733892 0 0 0
677 1 1 0.5897 5.912969494250676 6.031003219963445 9.746669468502681 0 0 0
257 1 1 0.5897 2.6801001076728084 8.957095162844858 10.316930384701235 0 0 0
146 1 1 0.5897 6.764910105024752 6.297577143482243 6.126907720633907 0 0 0
256 1 2 -1.1794 2.651908593158005 9.867455685411201 10.611536230569007 0 0 0
578 1 1 0.5897 5.838302955259167 10.622160114654982 6.367932705690425 0 0 0
577 1 2 -1.1794 5.218223399221739 11.070822172116197 6.942774823621745 0 0 0
528 1 1 0.5897 7.992698585961508 6.6633604942636016 9.73303900444969 0 0 0
822 1 1 0.5897 8.058967822906984 9.860868318255836 9.880639066867543 0 0 0
793 1 2 -1.1794 3.06770415293546 9.71670246133927 5.741453214666069 0 0 0
714 1 1 0.5897 7.384097573321206 8.798080892395257 5.989959402822369 0 0 0
551 1 1 0.5897 0.4569079620409844 11.020741303164893 7.713406808064996 0 0 0
114 1 1 0.5897 1.1715042278761154 6.307886554848026 9.944803929810648 0 0 0
165 1 1 0.5897 8.912912837668786 6.083225876299242 5.654645536435355 0 0 0
259 1 2 -1.1794 0.15037773339438115 11.403872887232241 14.350777271419929 0 0 0
225 1 1 0.5897 3.3538147460273513 6.7995619301103405 15.866533568758104 0 0 0
332 1 1 0.5897 2.811237236486628 8.106159045509099 13.959698015545413 0 0 0
797 1 1 0.5897 2.477895595589966 9.734406262889587 12.61994848926363 0 0 0
796 1 2 -1.1794 2.3140298054904918 9.904310797033013 13.547605430503193 0 0 0
798 1 1 0.5897 1.40655970105564 10.207157999512507 13.579457644026279 0 0 0
722 1 1 0.5897 3.704418001648364 10.987335229133437 13.886264598476716 0 0 0
333 1 1 0.5897 3.6142271508479182 6.918988418236081 13.472080618657586 0 0 0
723 1 1 0.5897 4.758039323357483 10.898841074841062 14.969759422508846 0 0 0
828 1 1 0.5897 7.375000403163278 7.316196935830696 14.72835295149744 0 0 0
721 1 2 -1.1794 4.627009828557891 11.172304185876715 14.061840003072545 0 0 0
331 1 2 -1.1794 2.9368047732823745 7.167793946782964 14.100971526439428 0 0 0
827 1 1 0.5897 6.530439226729214 6.939876636247027 13.529588213260073 0 0 0
826 1 2 -1.1794 7.29166800611852 7.460577680672372 13.785761116966235 0 0 0
475 1 2 -1.1794 7.180743273653799 10.142817080293625 13.216512531611032 0 0 0
476 1 1 0.5897 6.282838356989691 10.361499243778919 13.46585456919413 0 0 0
477 1 1 0.5897 7.2717782663485595 9.215628168247827 13.436237933762822 0 0 0
261 1 1 0.5897 0.2965218749147882 11.256759071810453 15.285270244065577 0 0 0
821 1 1 0.5897 7.353419620103819 9.795319534942017 11.218514730927737 0 0 0
520 1 2 -1.1794 7.890303998336574 7.070555974494779 16.413925807573868 0 0 0
366 1 1 0.5897 1.3886863965242728 6.154367997905148 13.377591847031098 0 0 0
104 1 1 0.5897 8.804859755500411 10.804842970699909 13.936193365834457 0 0 0
851 1 1 0.5897 8.687828195733063 6.258954872459056 13.28392751753649 0 0 0
679 1 2 -1.1794 5.447588313361821 11.097580119227 16.635369662448845 0 0 0
5 1 1 0.5897 4.2721234020227055 6.627286766451748 21.404745460079944 0 0 0
141 1 1 0.5897 7.758326806660323 8.993004041149936 20.52273448097071 0 0 0
572 1 1 0.5897 1.693230884856017 6.250512259741955 17.118999245542412 0 0 0
224 1 1 0.5897 3.402308623557746 7.831819728779786 16.972924570048075 0 0 0
627 1 1 0.5897 2.51093286574785 9.925368093635507 17.20281766415019 0 0 0
160 1 2 -1.1794 7.58991863514434 7.3134428811443835 21.35749797701521 0 0 0
361 1 2 -1.1794 5.107755281453617 10.663520764436566 21.14803466475123 0 0 0
279 1 1 0.5897 4.821495710085474 6.229219290748162 17.518253795443663 0 0 0
140 1 1 0.5897 6.824800140484293 10.143773259127157 20.83282851481184 0 0 0
445 1 2 -1.1794 0.621224312420548 10.652882260098611 16.97913990927458 0 0 0
690 1 1 0.5897 2.2623552103843996 9.772246401523189 20.38306826146058 0 0 0
625 1 2 -1.1794 3.320742492917122 9.510228739516107 17.49962746976343 0 0 0
688 1 2 -1.1794 3.0788041909762907 9.358087819744988 20.10359568544748 0 0 0
4 1 2 -1.1794 3.5734189642104366 7.176975867546828 21.759552860339678 0 0 0
394 1 2 -1.1794 0.8104172513011186 10.512375075061179 21.313905750352344 0 0 0
689 1 1 0.5897 3.7671172435327915 9.901963476996354 20.48655390907022 0 0 0
161 1 1 0.5897 6.830156209686036 6.8875009543992896 20.960551885925625 0 0 0
626 1 1 0.5897 3.2639731642013934 9.52918734901254 18.45498937038533 0 0 0
139 1 2 -1.1794 7.659874705258583 9.938713890979415 20.412293588066643 0 0 0
6 1 1 0.5897 3.540972117853115 7.932454900807674 21.17265082417198 0 0 0
522 1 1 0.5897 7.788806706685058 7.97024615567528 16.724587296116812 0 0 0
8 1 1 0.5897 7.309323016839269 9.746113527925694 18.61165896063834 0 0 0
7 1 2 -1.1794 7.391937098239216 9.545780215461333 17.679283091223695 0 0 0
9 1 1 0.5897 6.67785444660006 10.030619043321073 17.26544142483474 0 0 0
246 1 1 0.5897 8.876850929570805 10.660198352066029 17.430188538484312 0 0 0
287 1 1 0.5897 8.681874862186623 10.732781067320992 21.333978839782937 0 0 0
521 1 1 0.5897 7.128312062346748 6.608566367895212 16.763447900188638 0 0 0
680 1 1 0.5897 4.764050222844772 10.564232024605616 17.04102131356144 0 0 0
573 1 1 0.5897 0.1816176703865627 6.320299811013639 17.074276921977273 0 0 0
647 1 1 0.5897 2.17895492325831 6.024931060648881 20.53471463382839 0 0 0
223 1 2 -1.1794 3.411198767464756 6.887266541147581 16.81800423842737 0 0 0
446 1 1 0.5897 0.492307968733004 11.59815391512306 17.057330803039857 0 0 0
363 1 1 0.5897 5.294237547143047 10.584688171172825 22.08361196376035 0 0 0
362 1 1 0.5897 5.285765178807678 11.58172377171834 20.94439272367402 0 0 0
396 1 1 0.5897 0.8065541785505694 10.702673485591736 22.25200957945413 0 0 -1
174 1 1 0.5897 5.1874207714845495 12.488202866804418 2.2539432434360265 0 0 0
173 1 1 0.5897 4.484118427178598 13.795954152993204 2.5490482620004027 0 0 0
172 1 2 -1.1794 5.250148276517503 13.276535742202343 2.7932553217988576 0 0 0
317 1 1 0.5897 7.472653156974574 15.181353877974411 0.1484709536851101 0 0 0
558 1 1 0.5897 3.2482965931903713 14.438747651235143 0.8856532606876247 0 0 0
556 1 2 -1.1794 3.171049915950274 14.659735767174915 1.8138140728992296 0 0 0
557 1 1 0.5897 2.311140767184144 14.32574332222234 2.069257435885493 0 0 0
478 1 2 -1.1794 7.51788466700907 14.885935434007221 1.93644665305558 0 0 0
200 1 1 0.5897 5.303075532121754 13.55575853915458 4.694378986842484 0 0 0
293 1 1 0.5897 2.9775416863886877 16.593418486076267 2.522174531132776 0 0 0
374 1 1 0.5897 0.9345925999826031 13.346819321829228 3.8470151387193647 0 0 0
449 1 1 0.5897 7.567025047503239 16.604080183107587 2.692027900619518 0 0 0
480 1 1 0.5897 6.689544160492397 14.442778719346325 2.120145145635282 0 0 0
479 1 1 0.5897 8.184330035549607 14.320219169548524 2.3264489920007985 0 0 0
373 1 2 -1.1794 0.8791876210864136 13.397018612015364 2.89271960034773 0 0 0
294 1 1 0.5897 3.192211859007838 17.419101713688757 3.772838709410175 0 0 0
292 1 2 -1.1794 2.9448178980754194 17.491787751431538 2.8509890853758892 0 0 0
448 1 2 -1.1794 7.489558355258255 17.530459127509797 2.920278078075857 0 0 0
454 1 2 -1.1794 5.223682160923297 13.727869089144551 10.555110231803512 0 0 0
656 1 1 0.5897 1.5930649895357474 14.192747799118914 6.011210043938463 0 0 0
579 1 1 0.5897 5.154728709360773 11.955680815797175 6.583269040828257 0 0 0
518 1 1 0.5897 7.436785627358671 15.746883130107276 6.232206347290719 0 0 0
811 1 2 -1.1794 3.047756936134247 15.14569178890268 9.292729313749035 0 0 0
456 1 1 0.5897 5.253129225726951 12.799162452471013 10.325145534075816 0 0 0
813 1 1 0.5897 2.290151952116272 14.63594451610256 9.579833585053198 0 0 0
17 1 1 0.5897 3.0163278304743373 14.890754189091098 7.479415354112028 0 0 0
384 1 1 0.5897 2.9091410931606827 17.000653437472756 9.865394999364224 0 0 0
655 1 2 -1.1794 0.90295732035491 13.60558832843935 5.7026007267464225 0 0 0
377 1 1 0.5897 6.737302855272684 14.535672978606856 9.984245999085902 0 0 0
201 1 1 0.5897 5.981603880314485 14.140308019110929 5.9149934605245065 0 0 0
519 1 1 0.5897 8.239828103195546 14.47275302214537 6.386035028761641 0 0 0
812 1 1 0.5897 3.8017645898066723 14.677752917782316 9.651531568724243 0 0 0
18 1 1 0.5897 3.8210243911052033 14.50209982568665 6.257384430682421 0 0 0
376 1 2 -1.1794 7.5249786800281075 14.925853590427604 9.605360241208043 0 0 0
16 1 2 -1.1794 3.014829844712427 14.944097777543911 6.523686082483426 0 0 0
517 1 2 -1.1794 7.3871405145163305 14.858892695841531 6.5861593854038905 0 0 0
186 1 1 0.5897 7.242540363812918 16.637691976770068 10.143320326257012 0 0 0
378 1 1 0.5897 7.339951895416716 14.977544531802758 8.667615822641862 0 0 0
766 1 2 -1.1794 0.8733983034759648 13.81202636602531 10.164677489176189 0 0 0
14 1 1 0.5897 0.39976988636749844 11.815662269759404 9.918051265413895 0 0 0
239 1 1 0.5897 2.997899197086189 16.540166590821972 5.957400900336663 0 0 0
307 1 2 -1.1794 7.5209787255446745 17.50457157109934 5.697100453899817 0 0 0
238 1 2 -1.1794 2.9890688538253465 17.44555120979465 5.6468349797855915 0 0 0
657 1 1 0.5897 0.10205302525615423 14.126924476507275 5.757365568850369 1 0 0
184 1 2 -1.1794 7.289630370739319 17.561626228253 10.389081361859736 0 0 0
59 1 1 0.5897 8.826630043770033 13.8647633504118 10.345246485682411 0 0 0
552 1 1 0.5897 0.6324886971513326 11.826211716355699 6.443622793010236 0 0 0
767 1 1 0.5897 0.9355434821954044 13.98783533150472 11.103566954646242 0 0 0
199 1 2 -1.1794 5.199172575126258 13.662397831486198 5.639949351988414 0 0 0
428 1 1 0.5897 5.16829985483861 13.021467814998905 13.404234237035627 0 0 0
232 1 2 -1.1794 2.6642570875557077 14.956238428985866 14.114118670648596 0 0 0
234 1 1 0.5897 2.53870572996529 14.892137732224802 15.06090392382129 0 0 0
606 1 1 0.5897 2.6708022341624886 16.794419085282666 13.245746938652497 0 0 0
427 1 2 -1.1794 4.99774127748562 13.94808261266241 13.23526676563442 0 0 0
233 1 1 0.5897 3.5145868203958925 14.545936522557758 13.956489572712236 0 0 0
639 1 1 0.5897 1.2264118849468177 14.193193629552109 13.393240130987866 0 0 0
429 1 1 0.5897 5.666119358908081 14.411128275748139 13.740348181542902 0 0 0
297 1 1 0.5897 7.7046385324747195 14.763177891913994 13.82291105774878 0 0 0
638 1 1 0.5897 0.39458678655717216 12.930068118375804 13.460231706417071 0 0 0
455 1 1 0.5897 5.136760956811281 13.736434707747176 11.508335795932801 0 0 0
295 1 2 -1.1794 7.041563330642342 15.352020449601007 14.18327374750544 0 0 0
270 1 1 0.5897 6.980653503673354 16.943190524814078 13.397033472791735 0 0 0
296 1 1 0.5897 7.096629683510839 15.224533251261166 15.130366359793124 0 0 0
637 1 2 -1.1794 0.4412230928330055 13.78377313636002 13.029810111772505 0 0 0
451 1 2 -1.1794 0.6550886464882987 13.261398605766573 20.393359357786245 0 0 0
452 1 1 0.5897 0.5264373340712452 12.346666245318977 20.644293418841386 0 0 0
823 1 2 -1.1794 2.6505170530509115 14.97071093928372 16.803278039151312 0 0 0
316 1 2 -1.1794 7.48303962664377 15.051127808991062 21.505642787144705 0 0 0
665 1 1 0.5897 2.104708208801545 14.130215001177975 21.269899199041244 0 0 0
824 1 1 0.5897 3.45703686568154 14.590668400302151 17.151598954793283 0 0 0
125 1 1 0.5897 5.077362498225502 13.690064723231583 18.72172010392398 0 0 0
825 1 1 0.5897 1.9758851609800547 14.319345665642608 16.99519786610427 0 0 0
684 1 1 0.5897 4.653364122609655 13.701425573374642 20.680589894458695 0 0 0
52 1 2 -1.1794 0.6142918452328459 13.276594203569926 17.490079869716283 0 0 0
666 1 1 0.5897 2.82628639303001 15.456205032715637 21.383941645834163 0 0 0
126 1 1 0.5897 5.772199854648341 14.042765947611784 17.423740898978824 0 0 0
664 1 2 -1.1794 2.9665372977900857 14.510918096822351 21.4388876243826 0 0 0
318 1 1 0.5897 7.530432131702561 15.935496214316483 21.142448702268457 0 0 0
117 1 1 0.5897 9.036063187990015 14.174483344648133 21.20546648509559 0 0 0
583 1 2 -1.1794 2.7077931178174204 17.37756110072269 18.158682116535008 0 0 0
683 1 1 0.5897 6.1511150522839175 13.912211467155453 20.61605765552817 0 0 0
51 1 1 0.5897 8.159244296624738 14.406260994959322 17.1418648227811 0 0 0
682 1 2 -1.1794 5.46247495441718 13.294056585911937 20.37133481478436 0 0 0
124 1 2 -1.1794 4.9524359963150015 13.69276661264244 17.772673039988007 0 0 0
50 1 1 0.5897 7.278434898641134 15.635079558127885 17.22013231159441 0 0 0
584 1 1 0.5897 2.5838008133430055 16.540172918702563 17.711819789988844 0 0 0
53 1 1 0.5897 0.4260294704899169 13.296016270876963 18.42840519902149 0 0 0
715 1 2 -1.1794 2.933957276187496 17.23665941569078 21.303211912859865 0 0 0
681 1 1 0.5897 5.2213561898856815 11.997356416633151 16.870881539364962 0 0 0
49 1 2 -1.1794 7.328056634129783 14.763005658154679 16.828630253362782 0 0 0
610 1 2 -1.1794 7.693676564050436 17.08899674101098 17.755162370707705 0 0 0
716 1 1 0.5897 2.848451759669839 17.31302855700738 20.35287940416766 0 0 0
159 1 1 0.5897 7.580521987776306 17.589602482571653 19.59741789616322 0 0 0
612 1 1 0.5897 8.505760874382606 17.576859526781305 17.618305645902698 0 0 0
157 1 2 -1.1794 7.554992603035984 17.524858316413773 20.552105566258703 0 0 0
267 1 1 0.5897 6.258897566631406 21.888852516971546 2.3143177178295784 0 0 0
696 1 1 0.5897 1.524631955285224 21.913210153957774 2.6887521151211415 0 0 0
266 1 1 0.5897 4.748934086012912 21.976878270199563 2.378781489966916 0 0 0
265 1 2 -1.1794 5.491833792054765 21.466280873122663 2.7007065466273197 0 0 0
695 1 1 0.5897 0.7097837791409106 20.704055202056587 3.0960278501434124 0 0 0
228 1 1 0.5897 5.186850350059137 19.585875252332116 2.2874491951776865 0 0 0
345 1 1 0.5897 0.49518655832102365 19.019971797081485 1.6146099269892065 0 0 0
413 1 1 0.5897 0.6395385532819065 21.816929116908685 5.009649941852411 0 0 0
344 1 1 0.5897 1.2192152462058825 18.350569675658797 2.7633679466401375 0 0 0
226 1 2 -1.1794 5.166569627846537 18.686967671264316 1.959110215872363 0 0 0
187 1 2 -1.1794 3.1342964114920444 22.63145320429908 1.747131740113453 0 0 0
602 1 1 0.5897 5.291140323059802 18.612551697255263 0.17626548581361876 0 0 0
343 1 2 -1.1794 0.4152873003183834 18.823383980880944 2.5480293838603933 0 0 0
818 1 1 0.5897 8.362231200930593 22.283275200390282 1.8115076836613426 0 0 0
694 1 2 -1.1794 0.8517221472004322 21.627004521504528 3.3064219284381635 0 0 0
189 1 1 0.5897 3.1477998416736055 22.627020311532092 0.7900148319455088 0 0 0
817 1 2 -1.1794 7.619145518382074 22.769092115715193 1.4536803988415388 0 0 0
227 1 1 0.5897 4.390047135199456 18.30091282728491 2.3643583172443705 0 0 0
249 1 1 0.5897 5.473514350215755 21.47058745947684 4.615306251330666 0 0 0
321 1 1 0.5897 9.04115017357781 18.372746397561663 2.0681557182767807 0 0 0
450 1 1 0.5897 6.654738761767081 17.80255316748286 2.5390930500283253 0 0 0
308 1 1 0.5897 7.459063217543661 17.64307950245891 4.751981585722646 0 0 0
555 1 1 0.5897 5.252412701299141 20.620257435403563 10.151721923077146 0 0 0
248 1 1 0.5897 4.592071694387059 21.84338137691207 5.788363758468492 0 0 0
87 1 1 0.5897 8.393166420734742 22.17917181956359 10.096269807719736 0 0 0
341 1 1 0.5897 1.4585814126473244 18.3689457236315 6.302687978984668 0 0 0
702 1 1 0.5897 2.4495449612732334 22.509986318357875 6.236618370455226 0 0 0
700 1 2 -1.1794 3.272971762191126 22.945449787275088 6.457011330764031 0 0 0
405 1 1 0.5897 0.5566801950607287 19.59589584358825 9.400865164174293 0 0 0
387 1 1 0.5897 5.215484561708212 19.8459578872641 6.511933825616927 0 0 0
39 1 1 0.5897 3.547968529893015 22.094910216925815 9.770808850406096 0 0 0
240 1 1 0.5897 3.7717343786221385 17.839189205169685 6.032471767575301 0 0 0
94 1 2 -1.1794 0.7233896037347936 21.21272446400821 10.000370818481843 0 0 0
85 1 2 -1.1794 7.661706039969775 22.700625791491152 9.765620460361728 0 0 0
404 1 1 0.5897 1.3650800365186684 18.334765345988654 9.619823788994063 0 0 0
102 1 1 0.5897 5.4464197279168065 18.871334012690706 8.494071523052122 0 0 0
386 1 1 0.5897 6.08233834558166 18.6079745444593 6.4232344937466275 0 0 0
385 1 2 -1.1794 5.296128883959002 18.952783768637172 6.846571570710965 0 0 0
340 1 2 -1.1794 0.7299037145618501 18.96907391511371 6.461145817475302 0 0 0
38 1 1 0.5897 2.1001119950509404 22.350495154176894 9.409922813280492 0 0 0
553 1 2 -1.1794 5.17790511653505 21.455549728879713 10.613225527520573 0 0 0
101 1 1 0.5897 5.989116710768067 18.4273022293766 9.835816909522345 0 0 0
31 1 2 -1.1794 7.71546582782524 22.602540122782838 6.933367408995735 0 0 0
37 1 2 -1.1794 2.99273089929371 22.62248794999395 9.196689290649624 0 0 0
414 1 1 0.5897 0.7630021350195101 20.76176022148524 6.0882503738940015 0 0 0
554 1 1 0.5897 5.849842662866068 22.009812702021627 10.216290108171485 0 0 0
86 1 1 0.5897 7.744570653505572 22.65342570092009 8.813155450166876 0 0 0
33 1 1 0.5897 6.915856862346275 22.232260202608085 6.559518370800272 0 0 0
342 1 1 0.5897 0.6012624053388747 18.94529368373757 7.4093862963782975 0 0 0
100 1 2 -1.1794 5.323476412882945 18.987228604016074 9.436265428191048 0 0 0
32 1 1 0.5897 8.425242519049467 22.14089094286585 6.486906794308622 0 0 0
701 1 1 0.5897 3.390726890853263 22.777146442704115 7.3919306166572625 0 0 0
403 1 2 -1.1794 0.6085305985761412 18.675620173838773 9.142643667671335 0 0 0
383 1 1 0.5897 3.623418191635252 18.30994981757707 10.125181300396447 0 0 0
247 1 2 -1.1794 5.435711551796333 21.446537496148366 5.571480510965066 0 0 0
185 1 1 0.5897 8.033564264981862 17.90415126110728 9.893595365399111 0 0 0
309 1 1 0.5897 8.315745829358598 17.970751664567068 5.956415906518914 0 0 0
96 1 1 0.5897 0.6694154087891131 21.14164715127725 10.953429529961094 0 0 0
412 1 2 -1.1794 0.7810578292533661 21.7087839283379 5.950176598133131 0 0 0
382 1 2 -1.1794 2.8855275295482175 17.778090465037067 10.423340385915418 0 0 0
502 1 2 -1.1794 0.3592985478537837 18.66890120322078 14.273294810340985 0 0 0
88 1 2 -1.1794 4.969112221971899 21.574726262886433 13.156527606521019 0 0 0
381 1 1 0.5897 1.3902396248658262 21.590387548400003 13.57041465944209 0 0 0
90 1 1 0.5897 4.945201255855908 20.6932520855818 13.528964107746425 0 0 0
763 1 2 -1.1794 5.058363683864703 19.14159754606582 14.185944685266216 0 0 0
738 1 1 0.5897 3.555989406659276 22.190264196952178 14.126084727832474 0 0 0
89 1 1 0.5897 5.065243125943324 21.434698549908635 12.214492678538415 0 0 0
379 1 2 -1.1794 0.6089025056974278 21.27693399034272 13.114898978879841 0 0 0
503 1 1 0.5897 1.1443494587096181 18.29110745944395 13.876793271759977 0 0 0
380 1 1 0.5897 0.5107656975766122 20.369518459936444 13.40336474861217 0 0 0
350 1 1 0.5897 2.6792564983199876 22.385294858784064 16.13623246991683 0 0 0
736 1 2 -1.1794 2.7238838963075858 22.61403093111462 14.336424912327754 0 0 0
764 1 1 0.5897 4.417045161582609 18.549719335801523 13.792712103114763 0 0 0
787 1 2 -1.1794 7.512492912235892 22.343252285362816 13.920717061091686 0 0 0
474 1 1 0.5897 5.292055179776511 18.402636742014465 15.98109545452769 0 0 0
788 1 1 0.5897 7.490201782201246 22.357910100135207 14.877567926961536 0 0 0
789 1 1 0.5897 6.61254952991074 22.143841423854283 13.662720255247093 0 0 0