#include		in.partitions
include		in.temp
variable        temperature equal 128.27
variable	tempDamp equal 100.0
include		in.pressure
variable        pressure equal 8271.0
variable        pressureDamp equal 1000.0 # This is 1 ps
include		in.seed
variable        seed equal 745823

units		real
atom_style	full
read_restart	restart.lmp.${pid}
read_restart	restart.lmp.0
Reading restart file ...
  restart file = 30 Jul 2021, LAMMPS = 30 Jul 2021
  restoring atom style full from restart
  orthogonal box = (0.033954450 -0.011816295 0.027239573) to (24.696047 24.741817 22.782760)
  2 by 4 by 2 MPI processor grid
  restoring pair style lj/cut/tip4p/long/omp from restart
  restoring bond style harmonic/omp from restart
  restoring angle style harmonic/omp from restart
  1920 atoms
  1280 bonds
  640 angles
Finding 1-2 1-3 1-4 neighbors ...
  special bond factors lj:    0        0        0       
  special bond factors coul:  0        0        0       
     2 = max # of 1-2 neighbors
     1 = max # of 1-3 neighbors
     1 = max # of 1-4 neighbors
     2 = max # of special neighbors
  special bonds CPU = 0.001 seconds
  read_restart CPU = 0.004 seconds
include 	in.setup
variable	out_freq equal 1000
variable	out_freq2 equal 10000
variable	out_freq3 equal 1000

timestep	2.0

neigh_modify    delay 7 every 1

include		in.tip4p
# This is TIP4P/Ice

# create groups ###
group ox type 2
640 atoms in group ox
group hy type 1
1280 atoms in group hy

# set charges - beside manually ###
set group ox charge -1.1794
Setting atom values ...
  640 settings made for charge
set group hy charge 0.5897
Setting atom values ...
  1280 settings made for charge

# ### TIP3P Potential Parameters ###
pair_style lj/cut/tip4p/long/omp 2 1 1 1 0.1577 8.5
pair_coeff 1 1*2 0.000 0.000
pair_coeff 2 2 0.21084 3.1668
bond_style  harmonic
bond_coeff  1 450 0.9572
angle_style harmonic
angle_coeff 1 55 104.52
kspace_style pppm/tip4p/omp 1.0e-5
pair_modify tail yes

thermo          ${out_freq}
thermo          1000
thermo_style    custom step temp pe etotal epair emol press lx ly lz vol pxx pyy pzz pxy pxz pyz enthalpy

restart 	${out_freq3} restart.lmp.${pid} restart2.lmp.${pid}
restart 	1000 restart.lmp.${pid} restart2.lmp.${pid}
restart 	1000 restart.lmp.0 restart2.lmp.${pid}
restart 	1000 restart.lmp.0 restart2.lmp.0


include         in.dump
dump            myDump all atom ${out_freq2} dump.water.${pid}
dump            myDump all atom 10000 dump.water.${pid}
dump            myDump all atom 10000 dump.water.0
dump            myDump2 all dcd ${out_freq2} dump.dcd
dump            myDump2 all dcd 10000 dump.dcd
dump_modify     myDump append yes
dump_modify     myDump2 append yes


variable natoms 	equal  "count(all)"                        # NUMBER ATOMS
variable H      	equal  "enthalpy/v_natoms"                 # ENTHALPY-per-atom
variable Vol      	equal  "vol/v_natoms"                 # volume-per-atom
fix AVG all 		ave/time ${out_freq} 1 ${out_freq} v_Vol v_H file vol_enthalpy.dat
fix AVG all 		ave/time 1000 1 ${out_freq} v_Vol v_H file vol_enthalpy.dat
fix AVG all 		ave/time 1000 1 1000 v_Vol v_H file vol_enthalpy.dat




fix 		1 all shake 1e-6 200 0 b 1 a 1
       0 = # of size 2 clusters
       0 = # of size 3 clusters
       0 = # of size 4 clusters
     640 = # of frozen angles
  find clusters CPU = 0.000 seconds
fix             2 all nph aniso ${pressure} ${pressure} ${pressureDamp}
fix             2 all nph aniso 8271 ${pressure} ${pressureDamp}
fix             2 all nph aniso 8271 8271 ${pressureDamp}
fix             2 all nph aniso 8271 8271 1000
fix             3 all temp/csvr ${temperature} ${temperature} ${tempDamp} ${seed}
fix             3 all temp/csvr 128.27 ${temperature} ${tempDamp} ${seed}
fix             3 all temp/csvr 128.27 128.27 ${tempDamp} ${seed}
fix             3 all temp/csvr 128.27 128.27 100 ${seed}
fix             3 all temp/csvr 128.27 128.27 100 745823


run             250000
PPPM initialization ...
  extracting TIP4P info from pair style
  using 12-bit tables for long-range coulomb (../kspace.cpp:340)
  G vector (1/distance) = 0.37521712
  grid = 30 30 30
  stencil order = 5
  estimated absolute RMS force accuracy = 0.0031829672
  estimated relative force accuracy = 9.5854112e-06
  using double precision FFTW3
  3d grid and FFT values/proc = 7920 1800
Last active /omp style is kspace_style pppm/tip4p/omp
Neighbor list info ...
  update every 1 steps, delay 7 steps, check yes
  max neighbors/atom: 2000, page size: 100000
  master list distance cutoff = 10.8154
  ghost atom cutoff = 10.8154
  binsize = 5.4077, bins = 5 5 5
  1 neighbor lists, perpetual/occasional/extra = 1 0 0
  (1) pair lj/cut/tip4p/long/omp, perpetual
      attributes: half, newton on, omp
      pair build: half/bin/newton/omp
      stencil: half/bin/3d
      bin: standard
Per MPI rank memory allocation (min/avg/max) = 12.56 | 12.56 | 12.57 Mbytes
Step Temp PotEng TotEng E_pair E_mol Press Lx Ly Lz Volume Pxx Pyy Pzz Pxy Pxz Pyz Enthalpy 
27250000    131.40509   -9660.2923   -9159.3161   -9660.2923            0    10439.743    24.662092    24.753634    22.755521    13891.708    11061.033    9955.2486    10302.947    -260.8844   -586.02243    48.821455   -7044.2627 
27251000    127.94996   -9666.7269   -9178.9233   -9666.7269            0    8769.3484    24.734414    24.772265    22.764068    13948.169    8375.7691     7974.933    9957.3431   -568.67609   -403.41448   -199.62812   -7395.0647 
27252000    131.51656   -9674.2511   -9172.8499   -9674.2511            0    9250.8262    24.631696    24.730855    22.868255    13930.492    9826.1027    9742.7768    8183.5993   -179.77698    859.43311    459.13465   -7293.4341 
27253000    129.98212   -9664.9403   -9169.3892   -9664.9403            0    9483.9686    24.672412    24.812451    22.714902    13905.677    10342.829    8067.9911    10041.086   -727.98407   -95.718971    1110.3043     -7246.04 
27254000    125.11194   -9673.1779   -9196.1941   -9673.1779            0    8379.9709    24.639748    24.816845    22.856484    13976.301    9246.2989    7179.4336    8714.1803   -261.04457    648.41481   -81.228985   -7488.1044 
27255000    129.74258   -9665.8249    -9171.187   -9665.8249            0    7889.2994    24.733192    24.867165    22.731958    13981.162    7366.0433    7386.4422    8915.4128   -279.51601   -41.183343   -722.19572   -7562.5517 
27256000    129.01662    -9647.067   -9155.1968    -9647.067            0    8151.2194    24.727104    24.738132    22.861423    13984.387    7379.2088    9358.0261    7716.4234    179.82429   -472.07907    8.1400614   -7492.7724 
27257000    127.68918   -9675.6603    -9188.851   -9675.6603            0    8402.1873    24.777978    24.760404    22.746157    13955.057    7778.2005    9050.4168    8377.9446    -479.9208    -343.5004    337.00836   -7478.8361 
27258000    125.49542   -9671.5989   -9193.1531   -9671.5989            0    6405.1797    24.866803    24.757066    22.833026    14056.675    5301.9313    7179.3958    6734.2119   -593.23483    112.82842    302.27091   -7880.0773 
27259000    126.08987   -9639.2962   -9158.5842   -9639.2962            0    8249.1343    24.792468    24.737143    22.822326    13996.814    8024.0208     8679.418     8043.964    17.462517   -653.20321    523.16226   -7474.6952 
27260000    129.18954   -9665.8088   -9173.2793   -9665.8088            0    7769.8018    24.807519    24.758468    22.810296    14009.996    6671.5607    8243.3025     8394.542   -112.20975   -943.98276    -413.1711   -7585.7424 
27261000    127.83425   -9670.9953   -9183.6328   -9670.9953            0    8132.6317    24.755842    24.710458    22.871835    13991.347    7837.6086    8381.5206    8178.7659   -250.61258   -286.11324   -178.62192   -7524.1739 
27262000    134.24131   -9671.0414   -9159.2523   -9671.0414            0    7983.9691     24.78007    24.771179    22.777427    13981.503    7554.2339    8030.1087    8367.5647   -228.62988    169.99907    210.48752   -7531.2741 
27263000    127.84606   -9654.0109   -9166.6034   -9654.0109            0    7757.5783    24.711959    24.793089    22.872068    14013.391    8119.9335    7718.6526    7434.1489    97.157572    92.714608    196.13535     -7581.18 
27264000    127.87822   -9688.2212   -9200.6911   -9688.2212            0    8336.5758    24.672108    24.790125    22.834095    13965.895    9012.2111    7774.7145    8222.8017    343.04433    38.314561   -454.32732   -7502.7118 
27265000    125.99333   -9663.6533   -9183.3093   -9663.6533            0    7868.9852    24.702712     24.86081    22.783761    13992.178    8637.1806    7041.9764    7927.7986   -274.04181   -425.55607    514.60657   -7577.5519 
27266000    127.12025   -9655.0323    -9170.392   -9655.0323            0    8818.0926    24.645185    24.800466    22.843095    13961.976    9162.5725    8627.0391    8664.6662   -251.80109   -448.10268    16.048842   -7374.8423 
27267000    127.46514   -9652.1417   -9166.1865   -9652.1417            0    9139.9087    24.668504    24.857866    22.723721     13934.33    10328.165    7931.8368    9159.7241   -206.76877   -678.90985   -13.344081   -7308.7934 
27268000    130.30498   -9688.6046   -9191.8226   -9688.6046            0    9113.1504    24.709573     24.69259    22.827862    13928.269    8577.8946    10029.225    8732.3314    376.79272   -90.158458    387.85729   -7340.6728 
27269000    129.01607   -9675.6942   -9183.8261   -9675.6942            0    7868.4812    24.752551    24.749563     22.81923    13979.398    8530.7014    7479.4081    7595.3342    669.00916    366.78352    -155.6868    -7579.638 
27270000    128.76491   -9675.9995    -9185.089   -9675.9995            0    8935.6538    24.750724    24.791987    22.693243    13925.019    8789.0578     8669.008    9348.8957   -320.90605   -512.81914    344.77326   -7370.4175 
27271000    128.71572   -9676.1987   -9185.4757   -9676.1987            0    7990.5048    24.717951    24.728995    22.855146     13970.21    8447.3408     8368.405    7155.7685    184.13242    323.25474     528.6767   -7557.4808 
27272000    130.17368   -9660.7187   -9164.4372   -9660.7187            0    7867.9883    24.765441    24.884494     22.70033    13989.657    8058.5502    6609.9902    8935.4244   -219.55756    146.23414    338.63269   -7559.1726 
27273000    126.19027   -9680.0276   -9198.9328   -9680.0276            0    8361.5241    24.690121    24.777942    22.810153    13954.576    7547.3013    8734.9142    8802.3567    -20.70798   -391.15977   -400.79241   -7497.2525 
27274000    132.63113   -9654.0405   -9148.3902   -9654.0405            0    7528.3008    24.721497    24.853386    22.803655     14010.86    8703.1093      7082.42     6799.373    349.99099    238.72109   -477.46142   -7610.1022 
27275000    127.03952   -9658.5372   -9174.2046   -9658.5372            0     8068.632       24.683    24.827042    22.811155     13978.81      9504.39    6671.3938    8030.1121    662.99487    12.534678   -473.76665   -7529.2801 
27276000    131.73113   -9664.1784   -9161.9593   -9664.1784            0    8037.4814     24.70345    24.742625    22.855816    13970.119    8910.5715    8230.6621    6971.2105   -678.20392    69.447196    449.78472    -7524.404 
27277000     130.9019   -9667.9967    -9168.939   -9667.9967            0    9167.1649     24.76006    24.750204    22.745137    13938.596    8807.2289    9029.0004    9665.2655    703.82678   -286.15575    682.74037   -7305.4366 
27278000     128.3397   -9677.8675    -9188.578   -9677.8675            0    8433.4401     24.75022    24.696946    22.837078    13959.275    7975.5293    9182.1166    8142.6743    135.52894   -456.12724    572.69949   -7471.6839 
27279000    122.70997   -9660.1248   -9192.2985   -9660.1248            0    8273.0349    24.739473    24.821151    22.775006     13985.27    9381.9428    7375.9817      8061.18    971.07689   -405.58648    506.78281   -7504.9235 
27280000    128.54631     -9651.89   -9161.8128     -9651.89            0     9275.468    24.717872    24.710584    22.832107    13945.692    9062.1157    9143.9269    9620.3615    153.86493    303.37524    556.90337   -7275.3346 
27281000    132.70367   -9658.1617   -9152.2349   -9658.1617            0    8549.7327    24.736229    24.795697    22.761774    13960.981    8353.5503     8510.937    8784.7108    -222.6536   -393.00071    1310.9901    -7411.453 
27282000    133.37248   -9677.9258   -9169.4491   -9677.9258            0      7019.14    24.713728    24.883274    22.805763    14024.597    8144.8002    5841.3915    7071.2283   -196.89117   -705.95247   -39.290278   -7733.7937 
27283000    128.19069    -9657.099   -9168.3777    -9657.099            0    8302.6723     24.67725    24.749793    22.888826    13979.507    9734.9012    8379.7487    6793.3671    553.06011   -168.27316    15.292588   -7475.6556 
27284000    123.62981   -9670.9523   -9199.6191   -9670.9523            0    7898.7819    24.827356     24.90457    22.636017     13996.18    7260.1729    7187.4106    9248.7621   -440.68516    206.86755   -183.35248   -7587.3203 
27285000     126.0743   -9688.2522   -9207.5995   -9688.2522            0    7840.6968    24.680387    24.759743    22.860833    13969.798    8589.3932    7680.1032     7252.594   -107.99502     412.9255  -0.40356621   -7610.1737 
27286000    125.26292   -9657.5272   -9179.9678   -9657.5272            0    8507.1261    24.742452    24.840513    22.692894    13947.398    8988.8504    7742.5085    8790.0195     207.6222   -11.657826    154.25534   -7449.5461 
27287000    131.16776   -9679.4784   -9179.4071   -9679.4784            0    7839.5374    24.719704    24.825053    22.799655    13991.418    8635.6821    7436.9771    7445.9531   -154.71268    66.882818   -2.6887214   -7579.7457 
27288000    130.85006   -9664.5475   -9165.6874   -9664.5475            0     8733.526    24.645848    24.799169    22.843157    13961.659    9561.3842    7601.6473    9037.5463    281.49073    429.23672    577.71457   -7387.3976 
27289000    126.45189   -9671.6744   -9189.5822   -9671.6744            0    8135.0114    24.713479    24.853706    22.742203    13968.752    8203.9618    7779.8393    8421.2332   -655.39324   -706.23627    1259.6212   -7532.3183 
27290000     127.9056   -9675.2448   -9187.6104   -9675.2448            0    8454.4968     24.68808    24.788679    22.795271    13950.361    8654.4628    8482.5097    8226.5179   -776.51042   -280.45588     338.2719   -7467.5285 
27291000    125.87463   -9683.7776   -9203.8861   -9683.7776            0    8898.5649    24.756949    24.712498    22.787448    13941.498    9008.7147    9219.4253    8467.5546   -714.64986   -540.67217   -57.658703   -7394.6081 
27292000    132.42793   -9685.4491   -9180.5735   -9685.4491            0    8568.5728    24.785579    24.725315    22.741545     13936.73    8173.1463    8543.8812     8988.691   -321.89528    340.85228    467.25175   -7438.9861 
27293000    128.15281   -9655.4534   -9166.8765   -9655.4534            0    8395.8754     24.76658    24.711169    22.818725    13965.314    8215.0555    8869.1738    8103.3969   -407.74937    191.29114   -12.733937   -7456.8904 
27294000    131.07895   -9682.5431   -9182.8104   -9682.5431            0    7394.8972    24.798339    24.759657    22.820186    14011.557    7759.2882    7316.1041    7109.2993   -144.60943   -268.72724   -966.69129   -7671.7061 
27295000    124.50179   -9689.7143   -9215.0567   -9689.7143            0    7986.5461    24.786064    24.708129    22.825799    13978.914    6890.2338    9183.5332    7885.8713   -339.18486   -741.95956    819.76626   -7586.8546 
27296000    129.61321   -9649.0805   -9154.9358   -9649.0805            0    7925.1685    24.797559    24.719555    22.835373    13997.732    7822.1598    8737.4639    7215.8817   -97.662549    298.18156   -320.74907   -7537.0716 
27297000    131.12927    -9689.769   -9189.8445    -9689.769            0    7630.3872    24.775884    24.780735    22.780927    13986.683     7095.341    7831.1292    7964.6915   -467.62178   -724.95722   -159.34189   -7633.3872 
27298000    125.56955   -9662.1149   -9183.3865   -9662.1149            0    8272.7959    24.754611    24.773613    22.789928    13976.178    8578.0227    7860.6097    8379.7552   -681.21584    102.86641     151.2556   -7497.1573 
27299000    130.50037   -9666.1679    -9168.641   -9666.1679            0    7561.8694    24.762776    24.804302    22.808291    14009.385    7462.5026    7298.7588    7924.3469    -113.6596    528.51881    805.05143   -7623.6564 
27300000    130.09238   -9653.9546   -9157.9831   -9653.9546            0    8667.2254    24.714164    24.728389    22.833547    13954.528    8724.1214    8813.9251    8463.6296   -875.04337    439.84346   -209.46403   -7394.0946 
27301000    130.16481   -9666.5245   -9170.2769   -9666.5245            0    8383.5921    24.750925     24.87468    22.670702    13957.701    8892.5159    7391.6314     8866.629     436.3182    -272.5987    332.72791   -7463.7233 
27302000    125.00303   -9656.5901   -9180.0215   -9656.5901            0    7960.4643    24.646254    24.786373    22.910028    13995.535    9184.2743    7178.9553    7518.1634   -254.00351   -79.265901    11.120429   -7555.2069 
27303000    128.49855    -9672.246   -9182.3509    -9672.246            0    8184.8219    24.769484    24.840007    22.713646    13975.119    7887.4796    7710.2772     8956.709   -563.17349    90.661104    53.180933   -7514.1796 
27304000    126.58639   -9655.1467   -9172.5417   -9655.1467            0    7850.9205    24.713097    24.820938    22.829293     14003.54    8014.3534    7669.1344    7869.2737    6.0522897   -1060.9068   -166.26817   -7569.1697 
27305000    133.95362   -9678.2089   -9167.5167   -9678.2089            0    7194.1194    24.752883    24.836471    22.792622    14012.317    7340.0771    6979.5387    7262.7425    595.92291   -500.53881   -87.292489   -7697.3604 
27306000    129.03992   -9660.3239   -9168.3649   -9660.3239            0    7533.5102    24.702605    24.876485    22.788133    14003.626    7728.6957    7023.5072    7848.3277     239.2903    191.53522    355.55203   -7629.8073 
27307000    129.28218   -9674.6475   -9181.7649   -9674.6475            0    7264.9788    24.710969      24.8184    22.856662    14017.687    8142.7992    6213.9222    7438.2149    281.19296   -62.025823    360.73538   -7696.5592 
27308000    126.60489   -9660.6341   -9177.9585   -9660.6341            0    9212.4498    24.732062    24.786192    22.721947    13928.864    8783.2406    9293.5796     9560.529   -139.43959    73.958204   -446.78365   -7306.5581 
27309000    130.41973   -9673.6079   -9176.3884   -9673.6079            0     8356.516    24.660482    24.785049    22.823998    13950.285    8375.2419    8619.4065    8074.8998    246.51276    -590.1892   -133.60558   -7476.2503 
27310000    122.57144   -9664.3535   -9197.0553   -9664.3535            0    8906.4696    24.659537    24.878976    22.721772    13939.898    10114.619    7005.6712    9599.1188    288.80685   -870.66871   -599.67242   -7386.3779 
27311000    128.49329   -9677.5913   -9187.7163   -9677.5913            0    8430.0131    24.684283    24.799754    22.819452    13969.251    8671.9534    8555.9409    8062.1449       -407.9   -447.04982   -427.34688   -7470.2934 
27312000    125.61855   -9651.9268   -9173.0116   -9651.9268            0    9635.3273    24.736651    24.733484     22.73208    13908.022    7890.2448    10991.552    10024.185   -352.81701    676.95625   -337.36191   -7218.6374 
27313000    130.77605   -9648.6843   -9150.1063   -9648.6843            0    9235.3575    24.717653    24.713964    22.805996    13931.526    8564.7229    9987.0454    9154.3041   -537.82406   -283.71258   -424.01498   -7273.6939 
27314000    132.92915   -9673.5599   -9166.7733   -9673.5599            0     9493.232    24.706051    24.699951    22.798274    13912.379    9426.6833    9993.5403    9059.4723   -81.955256    438.82254    -150.5543   -7240.6177 
27315000     123.9693   -9671.3281   -9198.7006   -9671.3281            0    9073.7453     24.80986    24.724556    22.726681    13940.836    7977.5558    9661.2281    9582.4521   -37.937436    -566.7287    278.87392    -7353.892 
27316000    131.61809    -9643.449   -9141.6608    -9643.449            0    9569.4303    24.718519    24.634931    22.906263    13948.517    9760.3993    10873.264     8074.628   -531.23795    659.55578   -823.01214   -7195.0012 
27317000    125.27837   -9679.5109   -9201.8926   -9679.5109            0    8182.7924    24.765988    24.829198     22.73082    13977.627    8273.6316    7402.1909    8872.5547   -863.16156   -790.04228     4.495085   -7533.8356 
27318000    126.79241   -9678.2572   -9194.8667   -9678.2572            0    8533.2891    24.598883    24.804522    22.858965    13947.707    9440.5132     8338.969    7820.3851   -4.4601647   -488.20532   -80.477673   -7459.0848 
27319000    128.98351   -9688.2486   -9196.5047   -9688.2486            0    8681.8537    24.680088    24.783708    22.823179    13960.119    9115.2757    8431.4484    8498.8369   -103.43441    537.15795     314.7911   -7428.9312 
27320000    125.04122   -9669.5814   -9192.8673   -9669.5814            0    8304.0225     24.73519    24.833337    22.736011    13965.762    8181.0147    7772.1685    8958.8842     52.75361    -219.9693   -303.21922   -7501.5346 
27321000    130.59057   -9665.3067   -9167.4359   -9665.3067            0    9305.4775    24.611049    24.751358    22.841603     13914.12    10251.785    9067.7414    8596.9064   -14.487247    304.60577   -1442.3336    -7279.139 
27322000    128.09355    -9656.397    -9168.046    -9656.397            0    8081.8701    24.791218     24.77901     22.77361     13989.87     7231.294     8006.635    9007.6814    637.82278   -492.29126    383.25527   -7519.1189 
27323000    123.40256   -9685.9471   -9215.4803   -9685.9471            0    7889.5821    24.769418    24.667182    22.881603    13980.471    7302.7704     8810.415    7555.5608   -149.71561     664.3691   -33.545975   -7606.8669 
27324000    131.10369   -9666.6637   -9166.8366   -9666.6637            0    8296.1596    24.821697    24.734804    22.754349    13970.256    6747.4601    9460.7995    8680.2191    168.38207     183.6367    -74.31599   -7476.5617 
27325000    132.29996   -9655.2446   -9150.8568   -9655.2446            0    9431.2568     24.74775    24.640919    22.844567    13930.784    8909.1411     10320.56    9064.0692    197.37137    811.67095    300.50498   -7234.7442 
27326000    131.42407   -9683.6637   -9182.6152   -9683.6637            0     7816.251    24.761757    24.807642    22.758644    13980.198     7866.131    7963.5062    7619.1159    336.90945   -187.07979    263.13753   -7588.9844 
27327000    125.51509   -9685.0981   -9206.5773   -9685.0981            0    6998.0331    24.704665    24.812082    22.888548    14030.089    7731.5304    6496.0502    6766.5189    77.178838   -322.88769   -46.325857   -7774.6786 
27328000    130.25741   -9658.3848   -9161.7841   -9658.3848            0    7594.4156    24.728156    24.819094    22.801171    13993.773    8099.8721    7009.9471    7673.4275   -86.033212    410.04217     73.65205   -7611.8792 
27329000    130.04745   -9681.1266   -9185.3264   -9681.1266            0    8473.1344     24.65351    24.900892    22.739785    13959.826    8870.6139    7877.2227    8671.5666   -507.01998   -18.241265    438.90122   -7460.2831 
27330000    126.72289   -9666.7061   -9183.5807   -9666.7061            0    7761.1658     24.68102    24.809315    22.833801    13981.575    7671.6129    8155.4788    7456.4058   -690.03529   -176.97542    -612.9006   -7601.0251 
27331000     129.8399   -9661.6697   -9166.6608   -9661.6697            0    7795.3829    24.736293    24.831149    22.801876    14005.609     8179.265    7348.2795    7858.6042   -691.64049   -293.96883    520.40661   -7574.3959 
27332000     126.1164   -9669.4438   -9188.6306   -9669.4438            0    8070.0705    24.687375    24.733124    22.910192     13988.87    8433.6027    8179.8167     7596.792    242.51244    607.90747    712.33048   -7542.2288 
27333000    127.40374   -9693.4954   -9207.7743   -9693.4954            0    8061.3835    24.831884    24.764016     22.71095    13965.808    6408.0729    8513.8233    9262.2543   -1040.9792   -1200.6696    1094.2609    -7565.856 
27334000    132.22566   -9665.6799   -9161.5754   -9665.6799            0    7910.3864      24.7548    24.714631    22.889349    14003.835    8794.8336    7597.2321    7339.0935   -430.32123    112.88941   -356.40053   -7546.0248 
27335000    128.23406   -9677.4823   -9188.5956   -9677.4823            0    8039.6492    24.822177    24.721665    22.775536    13976.106    7229.0402    8369.1202    8520.7871   -892.68775   -764.70479    658.82647   -7549.8966 
27336000    128.60042   -9664.4568   -9174.1733   -9664.4568            0     8147.001    24.731619    24.723059    22.859287    13977.112    8388.2261    8173.1681    7879.6087    540.24455   -633.07367    -420.9898   -7513.4736 
27337000      126.603   -9656.0978   -9173.4295   -9656.0978            0    8811.5698    24.731798    24.774754    22.762189    13946.944    9241.6418    8907.7595    8285.3082     659.7226   -336.97089    -178.6719   -7381.1396 
27338000    131.73589   -9655.1215   -9152.8842   -9655.1215            0    8991.7575    24.756982     24.68418     22.82463    13948.263     8843.008    8610.1908    9522.0738   -210.82006   -128.54374    640.53216   -7323.7709 
27339000    125.75636   -9685.2331   -9205.7925   -9685.2331            0    8156.2467    24.821472    24.746171    22.741925    13968.918    7231.4077    8494.3772    8742.9552   -129.73468   -495.59813    225.83708   -7544.1828 
27340000    128.42324   -9661.3678   -9171.7598   -9661.3678            0    8032.0503    24.873031    24.673763    22.802486    13994.142    7297.1963    8666.7417     8132.213    87.783142    -198.9298   -22.866953    -7532.497 
27341000    127.64592   -9688.6629   -9202.0185   -9688.6629            0    7216.1761    24.838211    24.692658    22.845456    14011.608    6731.1687    8327.3173    6590.0422    27.798217    115.70082    552.54405   -7727.4294 
27342000     129.2845   -9665.9557   -9173.0642   -9665.9557            0    7912.1665    24.772239    24.799739    22.762616    13984.101    7889.5953    7981.7848    7865.1196   -439.04177   -216.19611     162.2505   -7559.4272 
27343000    132.15049   -9680.3152   -9176.4973   -9680.3152            0    7585.5791    24.679358    24.746924    22.924638    14000.952    8459.2177    7071.8488    7225.6708   -397.05884   -964.86045     348.7211   -7627.6015 
27344000     126.8356   -9661.5154   -9177.9603   -9661.5154            0    8764.2788    24.721764    24.848728    22.717031    13955.172    8785.0186    8257.7864    9250.0313   -35.069177   -1022.0916   -169.76072   -7394.2379 
27345000    125.53939   -9686.6541   -9208.0407   -9686.6541            0     8903.648    24.602454    24.800915    22.861547    13949.278    9103.1396    9274.2416    8333.5629   -792.42698     465.5344     205.0694    -7396.719 
27346000    127.74094   -9657.9199   -9170.9132   -9657.9199            0     8570.691    24.707291    24.772632    22.795016    13952.023    9051.7458    8371.3152     8289.012    -217.6284    458.86374   -423.54424   -7426.9837 
27347000    130.22455   -9666.1202   -9169.6448   -9666.1202            0    8336.4111    24.743276    24.812449    22.757772    13971.936    7696.2978     8650.002    8662.9335   -237.90506   -499.03345    89.965564   -7470.9648 
27348000    124.62727   -9680.3699   -9205.2339   -9680.3699            0    8560.5794    24.710493      24.7068    22.834484    13940.846    9550.8938    8414.9322    7715.9121   -153.37816   -746.15723    261.58761   -7464.7574 
27349000    129.69237   -9657.6994    -9163.253   -9657.6994            0    9197.1005     24.79852    24.836707    22.617943    13930.698    8129.0423    9150.4851    10311.774   -22.413708   -73.362354    505.48484   -7294.7246 
27350000    127.01212   -9678.4326   -9194.2045   -9678.4326            0    9091.2264    24.691847    24.702417    22.852933    13939.108    9003.3496    9572.7612    8697.5685   -216.46175     478.3588    306.81255    -7346.071 
27351000    128.86827    -9679.491   -9188.1864    -9679.491            0    8065.6708    24.817503    24.841631    22.669293    13975.784    7166.6144     7675.995    9354.4029    462.83055    805.71578    310.33152   -7544.2214 
27352000    126.09082   -9648.1593   -9167.4436   -9648.1593            0    7955.9954     24.71694    24.774681    22.874886    14007.534    7985.0492    8645.3227    7237.6142   -690.09178   -450.23104    -89.59467   -7542.1489 
27353000     126.8388   -9666.2671   -9182.6997   -9666.2671            0    6755.3352    24.822334    24.792334      22.8367    14053.787    6432.7741    6550.9357    7282.2957    142.17244   -253.30933      547.896   -7798.1257 
27354000    128.33201   -9670.4385   -9181.1783   -9670.4385            0    8225.4681    24.753161    24.775145    22.773522    13966.162    7996.1682     9011.233     7669.003    90.193733    95.786962     -225.599   -7505.7973 
27355000    132.62442   -9674.7388    -9169.114   -9674.7388            0    7962.3267    24.767079    24.680495    22.878144    13984.581    6712.4566    9957.4654    7217.0582   -299.28952   -758.00141    223.36925   -7545.1913 
27356000    128.35959   -9682.9768   -9193.6115   -9682.9768            0    8161.1811    24.724425    24.828309    22.749529    13965.155    8667.0413     7344.292    8472.2101    40.218311    86.609722   -8.2674966   -7531.4445 
27357000    130.51308   -9671.6706   -9174.0952   -9671.6706            0    8752.0973    24.598715    24.787501    22.867953    13943.521      10004.6    8355.7965    7895.8951    127.32015    126.25051    93.704861   -7394.3392 
27358000    127.80469   -9659.5441   -9172.2944   -9659.5441            0    9300.6049    24.686558    24.781992    22.754695    13920.914    9102.9699    8887.2167    9911.6281    248.04833   -650.05319   -265.92324   -7284.0646 
27359000       127.81   -9671.6095   -9184.3395   -9671.6095            0    8652.9057    24.677529     24.76438    22.814298    13942.358    8332.6993    9715.6479    7910.3699   -272.44908    346.97786   -62.186561    -7424.901 
27360000    126.41974   -9672.6248   -9190.6551   -9672.6248            0    8336.4306    24.727032    24.891979    22.694574    13968.619    8800.4728    6622.3241    9586.4948   -398.49595   -268.49431    126.80354   -7492.3743 
27361000    128.37282   -9667.1269   -9177.7111   -9667.1269            0    8435.1967    24.691181    24.775636    22.835318     13969.27    8818.0768     8348.658    8138.8553    215.95535   -1.8081115    -293.9792   -7459.2298 
27362000    130.45027   -9673.5515   -9176.2156   -9673.5515            0    7101.8914    24.728751    24.937875    22.757776    14034.323    8409.7277    5058.9332    7837.0134   -836.08086   -768.11781   -222.63331   -7722.6275 
27363000    127.68426   -9663.9746    -9177.184   -9663.9746            0       8755.7    24.710004    24.764912     22.81576      13961.9    8637.6228    9112.8907    8516.5866   -569.18801    245.25817   -44.748424   -7394.3484 
27364000    131.03011   -9644.3969   -9144.8504   -9644.3969            0    8571.3402    24.654412    24.830036    22.842552    13983.523    9961.8109    7918.8405    7833.3692   -764.02552   -550.52928    358.23362   -7396.8511 
27365000    130.68177   -9652.1968   -9153.9782   -9652.1968            0    8475.9103    24.671795    24.861144     22.78143    13973.424     9070.009    7525.9705    8831.7513    141.22544   -502.73946    -724.6062   -7426.6889 
27366000    125.77105   -9664.5839   -9185.0873   -9664.5839            0    9335.6084    24.676443    24.806844    22.742227    13921.533    9115.9595     9689.364    9201.5017    278.79025   -604.39999    346.31991   -7289.6668 
27367000    121.30526    -9666.107   -9203.6361    -9666.107            0    9245.2336    24.690911    24.729341    22.799909    13921.395    9309.6583    10001.258    8424.7845   -377.24996   -995.12528   -812.83936    -7326.583 
27368000    125.37967   -9681.4421   -9203.4376   -9681.4421            0    8546.8192    24.757725    24.740175    22.755925    13938.242    8887.7861    7974.0336    8778.6379   -511.25424     364.4796    45.659993   -7466.0832 
27369000    132.15993   -9684.7999    -9180.946   -9684.7999            0    7839.3217    24.788859     24.68639     22.85867    13988.305    7277.3463     8797.956    7442.6629   -274.27327   -503.62762    205.50025   -7581.6845 
27370000     125.2716   -9663.8514    -9186.259   -9663.8514            0    8682.1385    24.813207    24.731513    22.753439    13963.061    7875.0974    8805.6747    9365.6435   -221.72401    192.49482   -171.69879    -7418.255 
27371000    128.33472   -9675.1914   -9185.9209   -9675.1914            0    8554.2883    24.770564    24.644591    22.877351    13965.717    8200.7927    9633.7345    7828.3377    151.44581   -1163.3717    202.20876   -7443.6206 
27372000    123.39431   -9634.7809   -9164.3455   -9634.7809            0    8558.0068     24.79134    24.774542      22.7325    13962.167    7850.1424    8354.7193    9469.1587    308.36436    847.54669    727.32194   -7421.7309 
27373000    128.83711   -9692.6372   -9201.4514   -9692.6372            0     6454.119     24.73537    24.842053    22.852607     14042.41    7222.3722    5642.0777    6497.9072   -190.01633   -409.98033    275.51319   -7879.6856 
27374000    128.89178   -9652.8483   -9161.4541   -9652.8483            0    8248.8196    24.720762    24.805582    22.789688     13974.93    7922.5934    8055.1877    8768.6777   -504.96546     1107.362    467.78284    -7480.262 
27375000    133.20558   -9663.5173   -9155.6769   -9663.5173            0    8577.7603    24.658089    24.850471    22.801678    13972.073    9732.9475    7278.0786    8722.2548   -132.47502   -281.33857     157.7868   -7407.8008 
27376000    132.16727   -9685.3402   -9181.4583   -9685.3402            0    8124.3439     24.64874    24.868874    22.776037    13961.401    9003.6447     7559.308    7810.0789    417.93312    167.60732    35.236344   -7527.2386 
27377000    127.40226   -9661.4648   -9175.7492   -9661.4648            0    8073.3212    24.674145    24.877757    22.791232     13990.11    8168.5266    7962.2329    8089.2041    107.92062   -79.649736    251.91668   -7528.5382 
27378000    126.72751   -9672.9064   -9189.7633   -9672.9064            0    7442.4936    24.721429    24.819041    22.788518    13982.172    8526.3188     6918.105     6883.057   -250.20086   -487.03172   -403.83801   -7672.1225 
27379000    127.52981   -9658.5818     -9172.38   -9658.5818            0    8773.7371     24.65928    24.875877    22.763116    13963.378    9505.8218    7593.8957    9221.4939    360.32642   -923.32944    192.03788   -7385.6827 
27380000    127.93279   -9685.8317   -9198.0935   -9685.8317            0    8533.9812     24.71169    24.783516     22.81319    13971.769     8847.322    8391.2114    8363.4103    829.96865   -255.59002    771.05525    -7459.176 
27381000    125.64019   -9676.7518   -9197.7541   -9676.7518            0     7873.733    24.711177    24.816479    22.794221    13978.429    8644.5706    7525.6097    7451.0187   -93.579074    287.38175    148.72653   -7592.6067 
27382000    128.61912   -9672.1767   -9181.8219   -9672.1767            0    7722.4899    24.715276     24.75346    22.851451    13980.257     8081.754    8057.4277     7028.288   -38.168894   -455.41545   -347.04169   -7607.3012 
27383000    125.47234    -9665.473   -9187.1152    -9665.473            0    8122.2251    24.743665    24.777558    22.803537    13980.566    7481.1995    8577.4691    8308.0065    131.45048   -624.39583     419.7517   -7531.0568 
27384000    127.03497   -9686.0707   -9201.7555   -9686.0707            0     8460.481    24.765117    24.783678    22.756022    13966.979    8038.3883    8278.2844    9064.7704    444.61829    840.96874   -1184.3458   -7478.4058 
27385000    129.50593   -9702.8265   -9209.0908   -9702.8265            0    8030.1981    24.717746    24.712498    22.864929     13966.75     7849.146    8310.1621    7931.2862   -525.79964    14.856085    172.51035    -7573.414 
27386000     133.6401   -9685.6201   -9176.1231   -9685.6201            0    8288.5102    24.775027    24.802985    22.733077    13969.354    7929.6326    8021.6934    8914.2047    51.291787    297.15655    246.83563   -7487.5157 
27387000    129.43738   -9685.4608   -9191.9864   -9685.4608            0    7948.0956    24.761556    24.734544    22.848464    13993.903     7928.408    8264.1206    7651.7582   -441.06585   -169.52071   -166.33817   -7569.8857 
27388000    127.89208   -9665.8512   -9178.2683   -9665.8512            0    7938.4662    24.757052    24.829486    22.748974    13983.905    7730.2739    7572.3663    8512.7585   -9.1456389    592.86517    -694.7206   -7559.2903 
27389000    128.25365   -9684.7138   -9195.7524   -9684.7138            0    8429.4216    24.736858    24.799727    22.740014    13950.256    8505.4836    8582.1275    8200.6536   -388.17016   -941.24727    -37.03253   -7480.7851 
27390000    129.69665   -9673.5618    -9179.099   -9673.5618            0     7932.255    24.609419    24.839353    22.884592     13988.94     9859.109    6877.9223    7059.7336    252.59621   -65.274086   -206.88679   -7560.8052 
27391000    128.40408   -9685.5871   -9196.0522   -9685.5871            0    8372.1882    24.759329    24.828831    22.720812     13967.51    8054.8765    8396.9857    8664.7023    152.33035    13.633163    275.79881   -7490.6223 
27392000    124.52544   -9674.7589   -9200.0112   -9674.7589            0    7691.0844    24.740365    24.741043    22.884272    14007.519    8376.3989    7452.2875    7244.5669   -175.97918   -66.970904    807.38542   -7628.8357 
27393000    127.81998   -9661.2114   -9173.9033   -9661.2114            0    9618.5873    24.805087    24.686153    22.724798    13915.352    9099.8768    9937.9744    9817.9108   -42.014967   -193.65779     706.9139   -7221.8963 
27394000    125.78543   -9665.7096   -9186.1582   -9665.7096            0    8602.9413    24.824125    24.686579    22.780295    13960.282    7961.8054    9101.7941    8745.2243   -49.203488   -159.85074    201.75021   -7434.6304 
27395000    135.73181   -9668.0167   -9150.5452   -9668.0167            0    9084.1283    24.777853    24.684012    22.799672    13944.663     8211.182    10309.028    8732.1744    345.07478   -354.39674    602.42068   -7303.1186 
27396000    128.70513   -9674.9828   -9184.3001   -9674.9828            0    9177.0575    24.772426    24.763337    22.710227    13931.542    8348.6755    9339.7201     9842.777     538.9785   -1146.4027   -554.11738   -7319.7308 
27397000    125.49954   -9663.9653   -9185.5038   -9663.9653            0    8721.9116    24.696481    24.764441    22.834628    13965.534    8861.2682    8319.0749    8985.3919   -765.57622    213.88329    126.78483    -7409.086 
27398000    126.95462   -9682.7302   -9198.7212   -9682.7302            0    8662.1872    24.681456    24.798816    22.776196    13940.646    9521.8188    8175.5909     8289.152   -144.05217   -140.52385    587.30262   -7437.6118 
27399000    128.34137    -9666.994   -9177.6982    -9666.994            0    7947.2412    24.653199    24.815992    22.842649    13974.986    8550.7416    7829.6431     7461.339   -329.46253    78.977111   -11.985853   -7557.9643 
27400000    125.83049   -9667.5792    -9187.856   -9667.5792            0    8583.6849    24.681734    24.856829     22.70571    13930.172    9069.8046    7558.8364    9122.4138   -489.97649    110.05361    -219.3725   -7444.0179 
27401000    128.28719   -9667.8146   -9178.7254   -9667.8146            0    8107.9861    24.655124    24.799625    22.875948     13987.22    8772.4975     8198.763    7352.6978   -225.13388   -879.07458   -597.64199   -7524.7833 
27402000    126.73477   -9672.8922   -9189.7215   -9672.8922            0    8911.6376    24.703813    24.792735    22.747373    13932.199    9282.3767    9050.6211    8401.9149   -274.80456   -535.52269   -858.85536   -7378.9941 
27403000    129.89621   -9668.6027   -9173.3792   -9668.6027            0    8578.0866     24.73391    24.744994    22.803043    13956.384    8325.8709    9031.3349    8377.0542   -207.41747   -570.81764   -120.41447   -7427.3993 
27404000    126.77562   -9686.6568   -9203.3303   -9686.6568            0    7666.7283    24.764232    24.771217    22.807189    13990.845    8234.9121     7788.248    6977.0249    85.648547   -355.17418   -110.66134   -7638.9947 
27405000    127.33459   -9669.4213   -9183.9638   -9669.4213            0    8465.9475    24.781092    24.708308    22.804273     13963.03    8392.5733    9141.9222    7863.3471    20.161537   -969.14149    524.04182   -7459.9881 
27406000    122.26832   -9697.1192   -9230.9766   -9697.1192            0    7724.5954    24.722309    24.763849    22.844977    13986.141    7448.1325    8238.4952    7487.1584    315.26861    -885.0879   -550.49566   -7655.3636 
27407000    126.15969   -9667.8624   -9186.8841   -9667.8624            0    8640.2242    24.734006    24.826546    22.716308    13949.175    8992.4518    7517.7862    9410.4345    -352.8705   -58.478201    1004.5553   -7429.1653 
27408000    127.05185   -9656.5523   -9172.1727   -9656.5523            0    9621.9288     24.57641    24.762112    22.880303    13924.124    10972.925    9320.7878    8572.0739   -535.31665    521.02626    165.07244   -7218.2565 
27409000    131.10279   -9659.4652   -9159.6416   -9659.4652            0    9690.5155    24.663531    24.803066    22.726783    13902.682    9977.0624    8997.3551    10097.129   -178.76156    494.20486    82.749681    -7194.828 
27410000    126.55663   -9672.3661   -9189.8745   -9672.3661            0    7915.7485    24.674245    24.828977    22.829892     13986.42    7926.4769    8051.1188    7769.6497   -161.73637   -216.35145    230.28054   -7575.2392 
27411000    124.19851    -9685.267   -9211.7657    -9685.267            0    8763.5073    24.698783    24.747684     22.82652    13952.429    8121.0732    9144.1779    9025.2707   -620.73996   -450.81168    708.32044   -7428.5509 
27412000    131.44772   -9693.2029   -9192.0643   -9693.2029            0    7710.3293    24.736781    24.824755    22.772102    13983.996    7219.8299    7678.9239    8232.2342   -310.01792    -118.5053    175.62082   -7619.6025 
27413000     127.2073   -9661.6263   -9176.6541   -9661.6263            0    8166.1668    24.763964    24.727592    22.851005    13992.885    8024.6556    8329.7546    8144.0904    456.09936   -404.27017   -165.57145   -7510.1691 
27414000    127.17009   -9678.9566   -9194.1262   -9678.9566            0    8506.9459    24.838483    24.712029    22.711919    13940.788    7290.5409    9275.7821    8954.5146   -516.43214    324.32754    338.92247   -7464.5613 
27415000     126.0688   -9661.2071   -9180.5753   -9661.2071            0    8318.0608    24.756549    24.682634    22.872906    13976.646    8811.5633    8681.9552     7460.664   -690.92076   -611.39525   -74.096908    -7485.063 
27416000    130.09917   -9662.3416   -9166.3442   -9662.3416            0    8388.4051    24.776595    24.758013    22.769365    13967.167    7919.9106    8069.6498    9175.6548    228.15435   -330.46479    38.435193   -7457.6529 
27417000    122.52024   -9672.8975   -9205.7945   -9672.8975            0    8251.6333    24.757232    24.734652     22.80366    13964.084     8573.109    8095.6505    8086.1405   -360.62155   -77.201357    229.57475   -7525.3342 
27418000    128.15274   -9645.8935   -9157.3168   -9645.8935            0    8739.9805    24.665532    24.734221    22.905592    13974.306    8718.9537    9255.7106     8245.277   -313.41095    330.99179   -123.36729   -7376.1007 
27419000    124.07018   -9650.7644   -9177.7523   -9650.7644            0    9113.1498    24.730954    24.818284    22.732224     13952.58    9364.5584    8797.2062    9177.6849    110.07973    127.85399   -339.43605   -7323.3715 
27420000    126.52165   -9670.3456   -9187.9874   -9670.3456            0    8467.5222    24.648268    24.736193    22.899416    13961.873    9159.7097    8913.8937    7328.9633    -273.2266    411.66369    168.20062    -7463.834 
27421000    123.61675     -9665.34   -9194.0566     -9665.34            0    7480.5801    24.756819    24.888645    22.718791    13998.494    8127.8754    6510.6959    7803.1691   -186.04921   -718.08966   -822.51349   -7666.8686 
27422000    129.26773   -9676.7048   -9183.8773   -9676.7048            0    8413.2452    24.706804    24.711618    22.855562    13954.352    8638.6626    8899.1167    7701.9564   -193.89894   -507.96427   -628.25819   -7471.6986 
27423000    128.01612   -9669.0392   -9180.9834   -9669.0392            0     8916.412    24.832258    24.687236    22.751802     13947.76    7447.7382    9782.5472    9518.9504   -247.41044    8.0071168   -759.34188   -7367.2624 
27424000    130.00986   -9691.2918    -9195.635   -9691.2918            0     7792.215    24.809552    24.725308    22.765606    13964.965    8032.9822    7816.2284    7527.4343    112.63409   -1137.7966    62.076835    -7608.636 
27425000    127.25577   -9666.2522   -9181.0952   -9666.2522            0    8807.3259    24.744148    24.695079    22.833263    13952.464    7692.3214    10087.615     8642.041    417.03558   -883.52116   -162.97874   -7388.9596 
27426000    129.01508   -9675.2811   -9183.4168   -9675.2811            0    9024.6275    24.786358    24.746125    22.699543    13923.135    8999.1675    9127.4084    8947.3066   -237.86574   -966.16093      295.007   -7350.9243 
27427000    125.65673   -9652.9851   -9173.9243   -9652.9851            0    8687.9869    24.695734    24.733833    22.865559    13966.744    8612.8018    9310.9344    8140.2246   -447.34789    256.20931    1099.9492   -7404.2628 
27428000    125.77959   -9661.9852    -9182.456   -9661.9852            0    8580.3644    24.719031    24.801322    22.773572    13961.672     7985.244    8886.4769    8869.3725   -318.27524   -65.932645   -863.87362   -7435.3508 
27429000    128.30658   -9683.3609   -9194.1977   -9683.3609            0    8044.2071    24.673329    24.821485    22.833312    13983.775    8690.0403    6959.4196    8483.1613   -191.30386    197.08026   -24.364387   -7553.6701 
27430000    123.49234   -9668.9078   -9198.0987   -9668.9078            0    7752.2378    24.738952    24.830119    22.785358    13996.387    8728.0428    6223.7339    8304.9366     207.7879   -237.51698   -445.29689    -7615.689 
27431000    127.71155   -9672.2706   -9185.3759   -9672.2706            0    7860.2728    24.778319    24.775475    22.800896    13997.348    6701.0332    8556.3597    8323.4256   -564.21034   -1331.9096    63.144751   -7580.8037 
27432000    128.57605   -9653.5958   -9163.4052   -9653.5958            0    8061.3239    24.716062    24.753094    22.885336    14001.226    8225.3725    7914.7445    8043.8546   -455.75837   -412.93612   -111.20664   -7517.3352 
27433000     123.9845   -9656.7086   -9184.0231   -9656.7086            0    7798.1347    24.781061    24.826656    22.738781      13989.6    8201.0143    7641.2219     7552.168    241.90507   -493.69422    527.27136   -7593.0167 
27434000    125.81354   -9658.6418   -9178.9832   -9658.6418            0     8389.999    24.710596     24.74417    22.866684    13981.678    8237.5409    9635.4785    7296.9775   -551.48816   -343.27226    299.38228   -7468.1917 
27435000    131.65519   -9664.6241   -9162.6944   -9664.6241            0    7400.4806    24.783891    24.773469    22.831447    14018.119    7786.8093     7130.051    7284.5814   -423.79163    323.24401    308.82013    -7649.741 
27436000     130.6294   -9661.7516   -9163.7327   -9661.7516            0    8103.2526    24.762623     24.79034    22.783847    13986.408    8071.0897    8336.2358    7902.4324    221.40758     782.6035   -313.54402   -7510.8522 
27437000    124.15855   -9676.8397   -9203.4907   -9676.8397            0    8563.5544    24.744867    24.652225    22.839721    13932.596    8290.4573    9559.0287    7841.1773   -288.25215   -585.23264    494.26685   -7463.4396 
27438000    129.29016   -9654.3643   -9161.4512   -9654.3643            0    8441.6204    24.785645    24.778971    22.748256    13971.132    8082.4429    8128.8023    9113.6159   -275.71301   -602.18073   -482.84102   -7441.4319 
27439000    125.56264   -9685.9324   -9207.2304   -9685.9324            0    7974.8007    24.684147    24.794779    22.813173    13962.528     8998.472    6573.9754    8351.9546   -201.01201    909.65493   -642.70419   -7583.3285 
27440000    131.53275   -9658.8773   -9157.4144   -9658.8773            0     8660.314    24.629637    24.817675    22.834446    13957.563    9423.6144    8481.9629    8075.3645   -243.16765   -404.41053    377.21311   -7394.5492 
27441000    126.58051   -9660.8103   -9178.2276   -9660.8103            0    7840.7541    24.750205    24.807485    22.774729    13983.464    7909.9542    8102.0015    7510.3066    247.52977   -297.99037   -201.23982   -7579.2275 
27442000    128.04322   -9656.3163   -9168.1571   -9656.3163            0    8146.2568    24.723623    24.737506    22.887457    13997.987    7855.9993    8864.1639    7718.6072    80.571357    415.77956   -431.19466   -7505.1291 
27443000    126.49479   -9667.5625   -9185.3066   -9667.5625            0    7968.6701    24.734165    24.827596    22.770785    13983.308    8281.4303    7955.1041    7669.4759   -19.134424   -504.86198    141.52111   -7560.2382 
27444000     128.1634   -9675.6745   -9187.0571   -9675.6745            0    8108.6298    24.661511    24.787561    22.873548     13982.57    8855.6593    8063.9785    7406.2515   -317.09395    58.558827    74.412433   -7533.5336 
27445000    127.57913   -9667.9792   -9181.5894   -9667.9792            0    7368.0445    24.753558    24.868702     22.74812    14003.489    6711.0659    8197.6586    7195.4091    393.87259   -251.04335    156.86785   -7676.8393 
27446000    131.86717    -9675.721   -9172.9833    -9675.721            0    8497.8109    24.699876    24.714162    22.875991    13964.346    8801.3335    8475.1964     8216.903   -205.78342   -123.90663    644.20191    -7442.356 
27447000    129.36388   -9674.5397   -9181.3456   -9674.5397            0    8116.8636    24.781317    24.677613    22.839327    13967.248    7309.4223    8613.9286    8427.2401   -23.920856   -127.49751    -316.2665   -7527.9568 
27448000    125.41873   -9645.7963   -9167.6429   -9645.7963            0     8738.339    24.815316    24.747769     22.72527    13956.127    7579.8574    9059.0622    9576.0975   -457.01782   -279.02696   -519.68901   -7389.0782 
27449000    130.92919   -9663.1493   -9163.9875   -9663.1493            0    8473.6234    24.724912    24.715432    22.865173    13972.607    8040.3706     8774.673    8605.8267   -40.852804   -738.41105    129.59221   -7437.2652 
27450000    130.78374   -9675.3694   -9176.7621   -9675.3694            0    8468.9179    24.810251    24.768363    22.677592    13935.591    7566.7523    9134.8438    8705.1577   -489.13309   -1057.1307   -401.37411   -7455.5705 
27451000    130.96122   -9660.8091   -9161.5252   -9660.8091            0    8403.1859    24.677267    24.731887    22.888531    13969.222    9296.8806    7897.5368    8015.1404    349.25017    -1153.329   -860.92805   -7449.5712 
27452000    126.20724   -9662.8773   -9181.7177   -9662.8773            0    9163.0332    24.711684    24.833998    22.689664    13924.418    8734.4585    8704.4186    10050.222   -932.82528    -303.5354    35.130457   -7320.9499 
27453000    125.05046   -9681.8566   -9205.1072   -9681.8566            0    8030.4386    24.710553    24.836755    22.777123    13979.002    8074.2282    7239.1318    8777.9557    952.68753   -143.01679    301.96355   -7567.9465 
27454000    129.43626   -9666.2791    -9172.809   -9666.2791            0    8183.0571    24.636215    24.851204     22.82978    13977.295    8752.5184    7514.5935    8282.0595   -334.97308   -25.259587    744.80114   -7504.7378 
27455000     128.4314   -9685.7605   -9196.1214   -9685.7605            0    7966.3476     24.77086    24.816398    22.728368    13971.663    7223.5631    8372.2199      8303.26    135.82651   -599.26691    2.9908487   -7572.8796 
27456000    122.84181   -9687.7007   -9219.3717   -9687.7007            0    8247.4005    24.709943    24.761216    22.797108     13948.37    8207.6328    8386.3679    8148.2007    10.015145   -552.75991   -88.167515   -7541.6634 
27457000     126.8827   -9661.6887   -9177.9539   -9661.6887            0    8689.8781    24.745925    24.772564    22.765955    13955.986    9018.7283     8299.806    8751.1001   -222.37652   -687.19905    616.18772   -7409.2705 
27458000    125.13632   -9657.2829   -9180.2062   -9657.2829            0    8439.1709    24.746643    24.693782    22.873596    13977.785    8695.4245    8337.2166    8284.8715   -438.55099   -521.06023    551.91959   -7459.8672 
27459000    131.74544    -9667.386   -9165.1123    -9667.386            0    8456.2227     24.74383    24.732284    22.808048    13957.874    8707.7071    8558.9631     8101.998   -213.44308    431.48732    -76.32369   -7443.7528 
27460000    128.18583   -9663.8388    -9175.136   -9663.8388            0    8141.1411    24.817858    24.692363    22.814063    13980.721    7566.0802    8848.6417    8008.7012    -51.76147   -51.818192   -452.31103   -7515.2023 
27461000    128.92246   -9663.7591   -9172.2479   -9663.7591            0    7750.3015     24.79673    24.689879    22.863279    13997.546    6944.8982     9144.105    7161.9014   -488.81152    -142.2277   -114.31502   -7590.1025 
27462000    125.99964   -9666.0367   -9185.6686   -9666.0367            0    8150.8449    24.771455    24.780467    22.783602    13985.674    7302.3517    8989.5846    8160.5985    369.85269   -349.04872    231.16143   -7523.1676 
27463000    131.70468   -9689.4083     -9187.29   -9689.4083            0    8657.2475    24.777692    24.682024    22.777043     13929.61    8423.3121    9030.2374    8518.1929     20.97387    676.55923   -266.82905   -7428.5781 
27464000     128.6682   -9660.4049    -9169.863   -9660.4049            0    8719.2136    24.831964    24.767691    22.689298    13954.608    7483.1075    9015.1969    9659.3365   -785.18288   -876.78829   -515.00364   -7395.3841 
27465000    125.52618     -9669.77   -9191.2069     -9669.77            0     8289.063     24.72088    24.699513    22.868213    13963.186    8622.0426     8842.235    7402.9115   -135.95545   -454.65387    98.043951   -7503.2325 
27466000     127.6963   -9680.3656   -9193.5291   -9680.3656            0    8677.4407     24.80573    24.781425    22.698694    13953.371    7971.4656    8567.3825     9493.474   -411.65083   -681.19807    35.284112    -7427.708 
27467000    128.73012   -9660.5758   -9169.7979   -9660.5758            0    8236.6689     24.74647    24.730033    22.835649    13974.984    8434.2524    8756.9606    7518.7936    328.03202   -157.08098   -1249.8464   -7491.0758 
27468000    127.88545   -9671.4066    -9183.849   -9671.4066            0    7833.6678    24.751255    24.775257    22.839724    14005.746    7493.0444    7667.2125    8340.7465    70.276331    282.21018    483.66717   -7583.7484 
27469000    129.51479   -9698.3843   -9204.6148   -9698.3843            0    7406.5805    24.726764    24.831131    22.808383    14004.199    8149.8233    6747.6639    7322.2544    60.789327   -369.81659    204.82734   -7691.9179 
27470000    127.07399   -9670.0832   -9185.6192   -9670.0832            0    7979.8915    24.674014    24.818749    22.831966    13981.797    8439.6086    7844.8486    7655.2172   -32.963852   -446.79525    1486.4477   -7558.4382 
27471000    127.98939   -9671.1071   -9183.1532   -9671.1071            0    7889.0333    24.761731    24.891158    22.689904     13984.88    6868.6319    7397.6639    9400.8041   -201.21928   -369.22671    792.37828   -7574.1443 
27472000    125.57747   -9670.6274   -9191.8688   -9670.6274            0    8413.9178    24.684943    24.719372    22.877697    13959.886       8254.6    9149.1402     7838.013   -74.326326   -873.71316    136.87599   -7478.8741 
27473000    126.60913   -9659.3984   -9176.7067   -9659.3984            0    8633.8415    24.752668      24.7882    22.709933    13934.227    8825.1318    8255.4606    8820.9322    352.07675   -520.47984     229.1531   -7422.1685 
27474000    135.00058   -9660.5959   -9145.9122   -9660.5959            0    8962.6985    24.755226    24.723151    22.788232    13947.018    8988.2833     9100.135    8799.6772    128.86357    57.012822   -443.71519   -7322.8729 
27475000    129.53372    -9680.862   -9187.0204    -9680.862            0    8922.4523    24.733887    24.700681    22.800219    13929.653    8555.6811    9699.3011    8512.3747    188.00505    -610.5112   -333.71981   -7374.4268 
27476000    128.02768   -9671.8535   -9183.7536   -9671.8535            0    7854.5905     24.84577     24.78868    22.686049    13972.197     7591.612    7761.8399    8210.3197    25.820999   -420.14869   -115.63136   -7583.2224 
27477000    129.52458   -9660.8695   -9167.0627   -9660.8695            0    8517.9664    24.731456    24.687515    22.862339    13958.789    8631.9591    8746.6793    8175.2609   -426.64212    268.73192    351.97703    -7433.021 
27478000    130.03939   -9661.2486   -9165.4792   -9661.2486            0    8419.0385     24.76783    24.769391    22.753863    13959.132    8328.3618    8034.3147     8894.439   -247.52174   -95.038561    703.32628   -7451.5345 
27479000    127.28951   -9681.5298   -9196.2441   -9681.5298            0    7427.0801    24.771046    24.710738    22.880164    14005.196    6938.3163    8492.9099     6850.014   -285.69734    478.40307    -92.69428   -7679.2524 
27480000     127.8056   -9666.3118   -9179.0586   -9666.3118            0    8416.2881    24.755266    24.750969    22.791257    13964.587    7882.8443    9049.1107    8316.9093   -54.308225    25.028406   -294.87914   -7465.0043 
27481000    129.86172   -9654.2076   -9159.1155   -9654.2076            0    7838.0701     24.73289    24.836134    22.799934    14005.301    8480.1494    7715.5541    7318.5066   -597.19199   -1294.3626    454.33577   -7558.1666 
27482000    128.39124    -9658.915    -9169.429    -9658.915            0    8172.0033    24.691666     24.81073    22.817636      13978.5    8515.1656    7472.4307    8528.4137    540.99912   -483.71323   -616.57798   -7503.4674 
27483000    131.70186   -9659.3726    -9157.265   -9659.3726            0    8754.6211    24.735521    24.791944    22.732806    13940.704    8717.6228    8412.2045    9134.0361   -356.44435   -535.38916    528.83735   -7377.3555 
27484000    132.21383   -9670.9566   -9166.8972   -9670.9566            0    9032.3459    24.622806    24.639585    22.974597     13938.59    9489.7275    9605.9901    8001.3202    394.03779   -181.37828    311.15464   -7330.8016 
27485000    126.15292   -9678.3162   -9197.3637   -9678.3162            0    8246.4926    24.821189    24.768969    22.726365    13972.062    7118.5364    9049.7774     8571.164   -9.7911953    234.02011   -116.60842   -7516.9909 
27486000    129.79786   -9669.1305   -9174.2819   -9669.1305            0    7656.2865    24.770579    24.684873    22.916121    14012.259    8225.8487    8362.1165    6380.8943    452.67456   -486.79235    617.09527   -7609.6859 
27487000    125.05184   -9671.7593   -9195.0046   -9671.7593            0    7968.8468    24.775826    24.775528    22.785247    13986.363    7869.3672    8354.2473    7682.9259    205.14083    448.65422    459.10307    -7569.545 
27488000    131.69193   -9651.6936   -9149.6239   -9651.6936            0    8789.8715    24.664746    24.749261    22.871405    13961.488    9265.9132    8592.7707    8510.9306    165.96822   -103.43316    344.68505   -7359.8831 
27489000    128.30303   -9659.6924   -9170.5427   -9659.6924            0    9546.9157    24.749954    24.736253    22.714042    13906.016    9258.6868    9822.7412    9559.3193   -689.53452   -1038.9055   -500.22226   -7234.3806 
27490000    132.27919    -9668.512   -9164.2034    -9668.512            0    8056.4908    24.736702    24.818771    22.772282    13980.691    8752.4632    6944.5706    8472.4384   -380.22867   -145.03713   -415.93728    -7521.533 
27491000    128.38101   -9665.5522   -9176.1053   -9665.5522            0    7829.7995    24.629997    24.805764    22.924162    14005.882    8908.5744    8355.8323     6224.992    429.51836   -627.18409   -725.51938   -7576.7793 
27492000    129.51464   -9659.0068    -9165.238   -9659.0068            0    8852.0827    24.679649    24.834093    22.773055     13957.53    8545.4069    8463.4511      9547.39     9.429958   -914.23495   -167.17463   -7363.3411 
27493000    127.35367   -9669.8235   -9184.2932   -9669.8235            0    8976.5324    24.673227    24.814328    22.774821    13943.873    9294.3052    8173.8983    9461.3936    64.417018   -722.10423     626.9703   -7358.8518 
27494000    125.44656   -9676.5609   -9198.3014   -9676.5609            0    7740.8133    24.639661    24.880957    22.821038    13990.628    9114.9753    6805.9114    7301.5532   -691.42907    565.53496    566.93021    -7618.874 
27495000    129.16273   -9672.9174   -9180.4902   -9672.9174            0    7925.8013    24.695239    24.820398    22.811139    13981.988    8771.4481    7258.9682    7746.9876   -550.65989    103.04071   -181.11968   -7564.3166 
27496000    128.42231   -9682.5464    -9192.942   -9682.5464            0     8366.316    24.710764    24.776884    22.807261    13963.877    8852.7487    8318.8253    7927.3739    66.813469    3.3783333    918.24453   -7489.1516 
27497000    130.51174   -9649.7474   -9152.1771   -9649.7474            0    8923.2546    24.746651     24.74604    22.790345    13956.388     9084.837    8348.6176    9336.3093   -161.25571   -126.90381   -24.673635   -7335.9414 
27498000    123.94617   -9675.4007   -9202.8614   -9675.4007            0    8369.2304    24.746927    24.742162     22.81243    13967.879    8846.9421    8131.1377    8129.6113    123.75417    108.92241   -633.23507    -7497.989 
27499000    122.83629    -9680.049   -9211.7411    -9680.049            0    8265.4523    24.850536    24.707812    22.738402    13961.433    7549.3368    8581.9666    8665.0535   -283.85366   -601.50451   -83.375683   -7528.7861 
27500000    131.01771   -9667.4348   -9167.9355   -9667.4348            0    8169.8306    24.828562    24.711014    22.778899    13975.742    8371.9751    8325.2102    7812.3065   -35.339343   -306.66509   -364.67888   -7502.7455 
Loop time of 667.088 on 64 procs for 250000 steps with 1920 atoms

Performance: 64.759 ns/day, 0.371 hours/ns, 374.763 timesteps/s
364.6% CPU use with 16 MPI tasks x 4 OpenMP threads

MPI task timing breakdown:
Section |  min time  |  avg time  |  max time  |%varavg| %total
---------------------------------------------------------------
Pair    | 74.243     | 76.744     | 81.849     |  25.3 | 11.50
Bond    | 1.4186     | 1.7853     | 2.3215     |  16.1 |  0.27
Kspace  | 318.25     | 331.11     | 338.23     |  26.9 | 49.64
Neigh   | 0.57494    | 0.60556    | 0.64673    |   2.4 |  0.09
Comm    | 86.847     | 93.285     | 102.85     |  40.3 | 13.98
Output  | 0.57151    | 0.57185    | 0.57322    |   0.0 |  0.09
Modify  | 108.87     | 119.43     | 128.65     |  64.1 | 17.90
Other   |            | 43.55      |            |       |  6.53

Nlocal:        120.000 ave         123 max         117 min
Histogram: 2 2 0 3 0 4 1 0 0 4
Nghost:        4229.50 ave        4247 max        4212 min
Histogram: 2 2 2 1 0 2 2 1 1 3
Neighs:        43496.6 ave       45125 max       42111 min
Histogram: 2 0 2 4 1 3 0 1 2 1

Total # of neighbors = 695946
Ave neighs/atom = 362.47188
Ave special neighs/atom = 2.0000000
Neighbor list builds = 1136
Dangerous builds = 0

unfix		3
unfix		2
unfix		1

write_data	data.final.${pid}
write_data	data.final.0
System init for write_data ...
PPPM initialization ...
  extracting TIP4P info from pair style
  using 12-bit tables for long-range coulomb (../kspace.cpp:340)
  G vector (1/distance) = 0.37503912
  grid = 30 30 30
  stencil order = 5
  estimated absolute RMS force accuracy = 0.0032042601
  estimated relative force accuracy = 9.6495341e-06
  using double precision FFTW3
  3d grid and FFT values/proc = 7920 1800
Last active /omp style is kspace_style pppm/tip4p/omp
WARNING: Not all mixed pair coeffs generated from mixing. Use write_data with 'pair ij' option to store all pair coeffs. (../write_data.cpp:312)

write_restart   restart.lmp.${pid}
write_restart   restart.lmp.0
System init for write_restart ...
PPPM initialization ...
  extracting TIP4P info from pair style
  using 12-bit tables for long-range coulomb (../kspace.cpp:340)
  G vector (1/distance) = 0.37503912
  grid = 30 30 30
  stencil order = 5
  estimated absolute RMS force accuracy = 0.0032042601
  estimated relative force accuracy = 9.6495341e-06
  using double precision FFTW3
  3d grid and FFT values/proc = 7920 1800
Last active /omp style is kspace_style pppm/tip4p/omp
Total wall time: 0:11:07
