LAMMPS data file via write_data, version 30 Jul 2021, timestep = 20750000

1296 atoms
2 atom types
864 bonds
1 bond types
432 angles
1 angle types

-10.705254701724913 12.685254701724913 xlo xhi
-9.148784518896784 12.138782518896784 ylo yhi
0.06415300038722371 21.795845999616333 zlo zhi
-9.455633579488389 1.7386779164240849 2.555516517936709 xy xz yz

Masses

1 1.008
2 15.999

Pair Coeffs # lj/cut/tip4p/long/omp

1 0 0
2 0.21084 3.1668

Bond Coeffs # harmonic/omp

1 450 0.9572

Angle Coeffs # harmonic/omp

1 55 104.52

Atoms # full

280 94 2 -1.1794 -9.475083831146511 -4.569045972032842 1.3616609406631126 1 1 0
270 90 1 0.5897 -8.586816144197865 -7.458900910981081 1.9982962051789637 1 1 0
269 90 1 0.5897 -9.176900016249885 -6.078064240886686 2.1894263590043543 1 1 0
268 90 2 -1.1794 -9.317108027320442 -6.9984094782826025 2.4115935227374297 1 1 0
314 105 1 0.5897 -9.0194904091627 -6.89312265487955 4.545383909329827 1 1 0
299 100 1 0.5897 -6.633946740461829 -7.986775350530931 3.8825506159970753 1 1 0
163 55 2 -1.1794 -7.314342713899668 -8.078301554207512 0.8552460246359807 1 1 0
164 55 1 0.5897 -6.46061293674327 -8.36478135379065 1.1798505268029438 1 1 0
298 100 2 -1.1794 -6.131254596242266 -7.175191765867033 3.813768953465948 1 1 0
73 25 2 -1.1794 -8.562991652344067 -3.8111534183288107 4.723602307008505 1 0 0
317 106 1 0.5897 -1.5097681063822552 -4.033486258886575 1.4649021610598112 1 1 0
300 100 1 0.5897 -5.220070197183282 -7.447118470250224 3.9236883581176896 1 1 0
324 108 1 0.5897 -7.268264921087491 -4.199130990488825 3.4837859087503342 1 1 0
261 87 1 0.5897 -6.662481311911244 -5.177327003948815 1.0801674186839738 1 1 0
282 94 1 0.5897 -10.370435432144783 -4.232798954659214 1.4009547216043872 1 1 0
3 1 1 0.5897 -1.5701506513761743 -3.4557892161445922 4.408342920772972 0 0 0
323 108 1 0.5897 -6.6125307520101 -5.560013847974848 3.386454959199141 1 1 0
199 67 2 -1.1794 0.4086354614955656 -7.824588582699593 0.8707673242792936 1 1 0
310 104 2 -1.1794 -3.609860566178119 -8.174176413844087 3.9424830435890206 1 1 0
281 94 1 0.5897 -8.923474834377803 -3.8010285031557522 1.5099037468303882 1 1 0
75 25 1 0.5897 -9.306292496028632 -3.3811692676225507 4.300654630596173 1 0 0
322 108 2 -1.1794 -6.5955656141747285 -4.682637905052769 3.004336149875592 1 1 0
260 87 1 0.5897 -6.9940765369880555 -6.4189246706242065 0.28016766415876176 1 1 0
306 102 1 0.5897 -0.7585730089692628 -7.3684567547251 2.2095873869415588 1 1 0
304 102 2 -1.1794 -1.447631152249615 -7.017548940320619 2.773750415321071 1 1 0
318 106 1 0.5897 -2.9621230233121087 -4.3752003085622135 1.2081150140128287 1 1 0
242 81 1 0.5897 -1.059192220939737 -6.625477085903935 4.5100999504734895 0 1 0
305 102 1 0.5897 -1.848426562507413 -6.318836885957573 2.2567147024466245 1 1 0
316 106 2 -1.1794 -2.086635541453232 -4.761374320272436 1.2335324190433916 1 1 0
311 104 1 0.5897 -2.8274851782821058 -7.7503198350166285 3.5896702179873867 1 1 0
275 92 1 0.5897 -10.792653734939723 -7.97759185126106 3.1305163789666346 1 1 0
293 98 1 0.5897 -5.110606869803293 -3.8650442214983647 2.297581837948723 1 1 0
243 81 1 0.5897 -0.9191201974978345 -5.430907134622382 5.429290024097005 0 1 0
313 105 2 -1.1794 -8.952186319975693 -6.487373299196606 5.409710597886707 1 1 0
315 105 1 0.5897 -8.817210762570223 -5.557380788155147 5.228254650082817 1 1 0
201 67 1 0.5897 0.2243941724416434 -8.555226746659528 0.28057477054974517 1 1 0
241 81 2 -1.1794 -1.037832418595654 -6.380588853485856 5.43520935984105 0 1 0
259 87 2 -1.1794 -6.590134448105857 -5.5546245660340245 0.20344822663776901 1 1 0
420 140 1 0.5897 -9.250656238151018 -6.391444140343284 9.801808679529039 1 0 0
618 206 1 0.5897 -7.881043324608836 -7.440142582760883 6.588377859100957 1 1 0
413 138 1 0.5897 -7.761011404702973 -3.784455644695914 7.806161718984153 1 0 0
419 140 1 0.5897 -8.89978253880869 -5.485831458272948 8.640508744185246 1 0 0
418 140 2 -1.1794 -9.644912192784666 -5.84129595698398 9.1249388758105 1 0 0
414 138 1 0.5897 -6.8542178558686055 -4.903757365461221 7.340882146259893 1 0 0
350 117 1 0.5897 -7.241729805674712 -4.291433894770017 9.971895620068018 0 0 0
412 138 2 -1.1794 -7.452052986028948 -4.657794550850735 8.046805771818905 1 0 0
429 143 1 0.5897 -6.432781695159203 -7.277907235273751 8.682231014801504 1 0 0
427 143 2 -1.1794 -5.958231371238567 -7.119671258108887 9.498354026075003 1 0 0
428 143 1 0.5897 -6.634534592312806 -7.1328489307981995 10.17563494224393 1 0 0
627 209 1 0.5897 -10.445327105150078 -6.847095240480449 6.358028169455151 1 1 0
347 116 1 0.5897 -0.9286001849330461 -5.636795969341875 8.787145451261715 0 0 0
631 211 2 -1.1794 -5.748378479675282 -5.6390464159855185 6.189879983520129 1 1 0
348 116 1 0.5897 -1.3463501960641882 -6.609171562558416 9.869628882551844 0 0 0
544 182 2 -1.1794 0.285608394714858 -7.837615163567746 7.294429551133501 0 1 0
616 206 2 -1.1794 -7.397148369514172 -8.002285849087801 7.1933924403266305 1 1 0
336 112 1 0.5897 -3.5371651279855705 -5.099285983504832 9.545951944465445 0 0 0
359 120 1 0.5897 -4.710769036400841 -3.1130234336887037 8.763485576134265 0 0 0
346 116 2 -1.1794 -1.7006265058215995 -6.016803395217533 9.20644017712797 0 0 0
632 211 1 0.5897 -4.871869515245882 -5.865182446370918 6.501139185652164 1 1 0
356 119 1 0.5897 1.120708659491191 -7.239632078556188 10.075455782712302 0 0 0
546 182 1 0.5897 -0.17223927598697664 -7.274561060569999 6.670263444699952 0 1 0
553 185 2 -1.1794 -3.3194597865987454 -6.6036331360582405 6.971381636939813 0 1 0
554 185 1 0.5897 -2.9061187272266107 -6.471463789187215 7.824598584468836 0 1 0
334 112 2 -1.1794 -4.446746551969896 -4.801736281801169 9.565591603534065 0 0 0
335 112 1 0.5897 -4.96277916854242 -5.5989700017117965 9.446302934892412 0 0 0
555 185 1 0.5897 -2.6037401816366774 -6.516019372864031 6.341827273505691 0 1 0
351 117 1 0.5897 -7.193278896387203 -3.0421052130299575 10.825315346240036 0 0 0
349 117 2 -1.1794 -7.196276652317827 -3.9975267390268048 10.881732683278596 0 0 0
626 209 1 0.5897 -10.632266721282786 -6.532602575803721 7.827077847018345 1 1 0
404 135 1 0.5897 -5.17903232967214 -3.908095141256023 5.63961818224269 1 0 0
545 182 1 0.5897 -0.39880187776630116 -8.140686481052091 7.891077618181447 0 1 0
669 223 1 0.5897 -4.254490728712551 -3.568701752832375 10.914529410751403 0 0 0
727 243 2 -1.1794 -8.24613277083127 -7.50818560435836 10.921828281261503 1 0 0
74 25 1 0.5897 -8.436676062133914 -3.325519786334442 5.53870649276521 1 0 0
633 211 1 0.5897 -5.958493372555723 -6.318689297215133 5.5495156343981895 1 1 0
652 218 2 -1.1794 -5.7472431077251915 -5.4683531873237525 12.764083595513213 0 0 0
780 260 1 0.5897 -7.838642629292448 -4.1432277044819275 15.084380006716898 0 0 0
779 260 1 0.5897 -7.379401525827025 -3.1147667306766316 14.072872827505257 0 0 0
778 260 2 -1.1794 -8.162166068327469 -3.559129306587147 14.398523040285925 0 0 0
768 256 1 0.5897 -9.704566116111966 -2.6738631556401034 14.797145656893223 0 0 0
654 218 1 0.5897 -6.141457392329986 -4.9069941664474745 12.096464786267989 0 0 0
653 218 1 0.5897 -6.477946868110026 -5.9829259384233895 13.106863005033897 0 0 0
662 221 1 0.5897 -9.063086174797064 -4.362822761494821 13.140706264026768 0 0 0
661 221 2 -1.1794 -9.462917827268704 -4.597898724399109 12.303355923424986 0 0 0
663 221 1 0.5897 -8.773889751889604 -4.444353600528176 11.656882218450663 0 0 0
684 228 1 0.5897 -8.468703477398076 -6.696754789382947 14.225678278990058 0 0 0
682 228 2 -1.1794 -7.818742037385611 -7.096289015583802 13.647638033300128 0 0 0
818 273 1 0.5897 -5.936476618499371 -2.058113667140635 15.427185019970569 0 0 0
774 258 1 0.5897 -5.366615824779119 -2.4984700024077577 13.110467515926693 0 0 0
767 256 1 0.5897 -11.123761229433109 -3.191657804243441 14.89585142825002 0 0 0
766 256 2 -1.1794 -10.599225782651033 -2.397285925775151 14.995514081341181 0 0 0
788 263 1 0.5897 -5.156751722902193 -4.786313542540514 15.692378125468938 0 0 0
814 272 2 -1.1794 -0.37772913810042397 -3.559848021827076 14.876467928755156 0 0 0
740 247 1 0.5897 -11.166942314457154 -3.742231359884358 12.108924672924095 1 0 0
789 263 1 0.5897 -4.81103098972308 -4.9263792539544 14.225112979635648 0 0 0
657 219 1 0.5897 -0.27190496627500416 -7.343605850253568 11.980807365899897 0 0 0
787 263 2 -1.1794 -4.446676554410865 -4.6483003328487325 15.065464961320652 0 0 0
803 268 1 0.5897 -3.551308325206451 -3.0472207190777603 15.159652261171436 0 0 0
795 265 1 0.5897 -2.8631311013766636 -5.748185969288439 15.19971116170532 0 0 0
678 226 1 0.5897 -4.225672131197613 -6.290211883609162 12.583802281240978 0 0 0
720 240 1 0.5897 -0.6927009449746127 -6.679366124605032 14.187412630426032 0 0 0
655 219 2 -1.1794 -0.3517163277825208 -7.5345762777007685 11.04623140663956 0 0 0
804 268 1 0.5897 -2.047988004329312 -2.868956076072097 15.142345391781982 0 0 0
729 243 1 0.5897 -8.029552481481684 -7.281259785829583 11.826191428065378 1 0 0
698 233 1 0.5897 -1.3657291001785339 -4.203592846049481 13.354168832779697 0 0 0
699 233 1 0.5897 -1.0596188453673872 -4.283788276674009 11.87366832949918 0 0 0
697 233 2 -1.1794 -1.7600237729600057 -4.425361221325501 12.510584130574477 0 0 0
718 240 2 -1.1794 0.10508489797045151 -6.998131377169969 13.765320035574039 0 0 0
677 226 1 0.5897 -2.7415166983578096 -6.006766967377147 12.489066665666611 0 0 0
668 223 1 0.5897 -3.2552934179508153 -3.36864567036375 12.034207004423951 0 0 0
793 265 2 -1.1794 -2.025203353091639 -6.131546589706184 15.458903346008965 0 0 0
816 272 1 0.5897 0.17553794355807995 -4.065108917394229 15.47217681902508 0 0 0
667 223 2 -1.1794 -4.025499541445397 -2.972039066260396 11.627067652198903 0 0 0
676 226 2 -1.1794 -3.3685598798651766 -6.7096571684686985 12.65910904510943 0 0 0
802 268 2 -1.1794 -2.868954988618075 -2.3805627950011594 15.081424847133642 0 0 0
758 253 1 0.5897 -9.530811706731454 -5.689154521044766 16.032636356880126 0 0 0
757 253 2 -1.1794 -9.942747713471476 -6.2939464981583715 15.415625429958677 0 0 0
1088 363 1 0.5897 -6.85131280914371 -6.228066850486098 16.316217471345603 0 0 0
794 265 1 0.5897 -1.7243261327260218 -5.583417453326154 16.18362069573049 0 0 0
1087 363 2 -1.1794 -6.765494866406224 -5.2758566283509 16.272019143940824 0 0 0
1150 384 2 -1.1794 -6.59451680807339 -4.625856801210745 18.970333009831066 0 0 0
1152 384 1 0.5897 -7.087129271768334 -4.2548784971109015 19.702396473430113 0 0 0
1227 409 1 0.5897 -9.09873327734339 -3.1913892071098626 20.686772895638647 0 0 0
1109 370 1 0.5897 -9.031559470992134 -3.6758026238940333 17.679395259921158 0 0 0
1089 363 1 0.5897 -6.768178997875531 -4.992040825496019 17.186177777145318 0 0 0
1151 384 1 0.5897 -6.386369690076833 -5.517638817608407 19.248675829193694 0 0 0
1108 370 2 -1.1794 -9.524856531054649 -4.483866096438055 17.538763564264436 0 0 0
1225 409 2 -1.1794 -8.34622164440883 -3.6932695657535035 20.99994694647527 0 0 0
1221 407 1 0.5897 -10.980890221293185 -2.6098533956794707 19.51793569670872 0 0 0
1121 374 1 0.5897 -5.110918480619021 -3.5529408734756966 18.5864550658885 0 0 0
1097 366 1 0.5897 -9.05514822203374 -5.934491828852522 18.502253462157583 0 0 0
1166 389 1 0.5897 0.20040763878367507 -2.1518548265494513 18.683274022243403 0 0 0
1179 393 1 0.5897 -0.7830044126524314 -5.419233813392134 21.524058833045856 0 0 0
1129 377 2 -1.1794 -8.048804712013423 -1.9466043519133365 17.836638997278925 0 0 0
1130 377 1 0.5897 -7.623223830211833 -1.754110233016604 18.67216813036142 0 0 0
1177 393 2 -1.1794 -0.9587164146702865 -6.342854909317808 21.70321653339473 0 0 0
1124 375 1 0.5897 1.2142184877242705 -6.081865267594289 16.627604584253042 0 0 0
1096 366 2 -1.1794 -8.885194182890523 -6.834067165337858 18.781454171865583 0 0 0
1219 407 2 -1.1794 -10.647069215350477 -2.3162418147158483 20.365647484323844 0 0 0
1132 378 2 -1.1794 -1.2598625734105777 -6.849242082597792 18.98232303042397 0 0 0
1248 416 1 0.5897 -6.035308816481418 -1.7236454419600724 20.73707460857885 0 0 0
1262 421 1 0.5897 -0.15180792467662307 -3.1975702801351105 21.446226670405828 0 0 0
1144 382 2 -1.1794 -1.763496612830382 -4.4616973625039975 17.60481708467387 0 0 0
1143 381 1 0.5897 -8.658884361551248 -5.5134088992616075 21.728212157850862 0 0 0
1263 421 1 0.5897 -1.2542629627857789 -3.4387885641997045 20.4370241630239 0 0 0
1133 378 1 0.5897 -1.4458955127508073 -5.981714378213862 18.623327933576093 0 0 0
1188 396 1 0.5897 0.9812487371043463 -4.379078870030859 19.80396332829612 0 0 0
1257 419 1 0.5897 -3.361303185928029 -2.5630491738652186 19.40835886267496 0 0 0
1255 419 2 -1.1794 -2.837243112134323 -2.3655211633267275 20.184657589972417 0 0 0
1261 421 2 -1.1794 -0.4506636200101575 -3.8236880301361165 20.786821031035593 0 0 0
1256 419 1 0.5897 -3.4311768699210603 -2.5165691942131554 20.91997740624882 0 0 0
1120 374 2 -1.1794 -4.429915549947855 -3.162193055411718 18.03891610431989 0 0 0
1146 382 1 0.5897 -2.6030427394729383 -4.015396460129411 17.71530082314056 0 0 0
1122 374 1 0.5897 -4.909753619751556 -2.648363461860601 17.38930555767307 0 0 0
1145 382 1 0.5897 -1.1083254292179454 -3.7959038263071854 17.813631140258046 0 0 0
1141 381 2 -1.1794 -8.775448437569747 -6.460637000214536 21.656185403723434 0 0 0
1165 389 2 -1.1794 -0.05476600142724486 -2.3208723713136674 17.77629546677698 0 0 0
1187 396 1 0.5897 1.8241773970694197 -5.615325019999709 19.57438612040908 0 0 0
1125 375 1 0.5897 1.386499444192646 -4.8560160026469825 17.49888472997945 0 0 0
1226 409 1 0.5897 -8.058353275395177 -3.229089228284879 21.78600187778173 0 0 0
1110 370 1 0.5897 -10.441948469905963 -4.223276736617134 17.62424808434161 0 0 0
1142 381 1 0.5897 -8.588905491198116 -6.656205725539188 20.737917708480722 0 0 0
1123 375 2 -1.1794 1.3364960016765188 -5.133611116624338 16.584178249146767 0 0 0
165 55 1 0.5897 -5.709249722715885 -6.027639777977985 21.784772628868907 1 1 -1
273 91 1 0.5897 -10.60447819075988 -1.4454088848019042 0.30886751347388597 1 1 0
272 91 1 0.5897 -9.459231044586597 -1.1449710357375231 1.2523823744133311 1 1 0
83 28 1 0.5897 -9.696875840151172 -0.6620027136026572 3.8753951486720943 1 0 0
97 33 2 -1.1794 -12.056083854499605 0.6487290181140857 5.364987481113275 1 0 0
107 36 1 0.5897 -9.251769938835587 1.6830233127061813 3.3003959367221225 1 0 0
271 91 2 -1.1794 -10.270021987669386 -0.7743322355096822 0.9037890739845786 1 1 0
98 33 1 0.5897 -12.082695159820636 0.33504091912417344 4.461039196747431 1 0 0
292 98 2 -1.1794 -4.436576382620268 -3.429041085860584 1.7762137720600328 1 1 0
104 35 1 0.5897 -3.631218855172614 -2.5603918907657004 4.622103191891018 1 0 0
54 18 1 0.5897 -11.57020360582582 0.0020105759384296817 2.036718679297393 1 0 0
67 23 2 -1.1794 -10.732167477758443 -2.239396941295949 3.909592848021063 1 0 0
68 23 1 0.5897 -11.363831882232235 -2.4710442470705356 4.59048081792524 1 0 0
52 18 2 -1.1794 -12.288050216609502 0.25000644188610543 2.6193217325037623 1 0 0
53 18 1 0.5897 -12.564667650380224 1.1110994917493038 2.3061174403024656 1 0 0
258 86 1 0.5897 -12.800530522299754 -2.8782707310189313 1.099973352199143 1 1 0
69 23 1 0.5897 -11.086734285239018 -2.6293637436698445 3.1105623353963425 1 0 0
82 28 2 -1.1794 -9.052250507524686 0.04185330917555952 3.947444218152405 1 0 0
301 101 2 -1.1794 -7.953162093337237 -2.2311369045226934 1.5652876813314747 1 1 0
44 15 1 0.5897 -9.845332981292028 0.8793005853147218 0.4827542452995121 1 0 0
95 32 1 0.5897 -5.9388611456408995 -0.8200548180011431 3.3870542774211763 1 0 0
302 101 1 0.5897 -7.6078515183350195 -1.8298471045455837 2.362762831416073 1 1 0
84 28 1 0.5897 -8.21149218987673 -0.40937173121898063 4.023219727039626 1 0 0
26 9 1 0.5897 -4.295035423760523 0.37474764366582214 4.363378110312812 0 0 0
90 30 1 0.5897 -3.7554487100534297 -0.33242996549613935 2.0860234972685134 1 0 0
303 101 1 0.5897 -7.214908328181844 -2.227990587909618 0.9559893388788034 1 1 0
96 32 1 0.5897 -6.0844767156488695 -1.8541321237573687 4.4830698480102065 1 0 0
94 32 2 -1.1794 -6.594688774944703 -1.2882313836281662 3.903694524355199 1 0 0
294 98 1 0.5897 -4.925521368582429 -2.909516609192445 1.1380283014317207 1 1 0
89 30 1 0.5897 -4.600107401633658 0.895881133984151 2.349375565289108 1 0 0
103 35 2 -1.1794 -2.9822818283541404 -2.475836807400257 3.9235312465655587 1 0 0
88 30 2 -1.1794 -4.527101889088744 -0.03330162564088113 2.5669534498048674 1 0 0
105 35 1 0.5897 -3.455494515127402 -2.7139872543185266 3.1262620461384185 1 0 0
256 86 2 -1.1794 -12.33009082665054 -3.4718773133858827 1.685247895887422 1 1 0
59 20 1 0.5897 -13.699738477508253 -0.8567898006259025 3.2271598698223825 1 0 0
99 33 1 0.5897 -11.8994742465557 1.5897662767243919 5.287833759884698 1 0 0
27 9 1 0.5897 -4.248801068597638 1.595247252068905 5.257670223123735 0 0 0
25 9 2 -1.1794 -4.258958103330395 0.6385432469788412 5.282817651583818 0 0 0
309 103 1 0.5897 -2.9372710352573765 -1.2508650939068975 0.06769181366393061 1 1 0
435 145 1 0.5897 -7.756616929128719 -0.8610782494778224 9.995728755837941 0 0 0
522 174 1 0.5897 -10.056919177785662 2.081370737317881 7.8316956482055495 1 0 0
442 148 2 -1.1794 -7.429287874453481 2.3584057504177967 9.5620351164837 0 0 0
433 145 2 -1.1794 -6.941550314134396 -1.3225498391274328 10.193115816717688 0 0 0
401 134 1 0.5897 -11.35559160814547 -1.2696979476177006 7.656257584223488 1 0 0
527 176 1 0.5897 -12.156641858422839 1.4081187328045797 8.87098092058627 1 0 0
535 179 2 -1.1794 -9.138853913589283 0.10092232971076065 9.624645502138991 1 0 0
424 142 2 -1.1794 -8.201231709542682 -2.0349463925230733 6.933085565805532 1 0 0
528 176 1 0.5897 -12.3586747273111 0.3765500388893468 9.960410742327515 1 0 0
426 142 1 0.5897 -9.05528677121686 -1.6191699330225786 7.051217781569065 1 0 0
402 134 1 0.5897 -11.020734133074669 -0.2306391272731787 6.607434216582179 1 0 0
400 134 2 -1.1794 -10.625760316190549 -0.7664078226629947 7.295333093176434 1 0 0
536 179 1 0.5897 -9.877069080380581 -0.03476396496684053 10.21869938910668 1 0 0
526 176 2 -1.1794 -12.838293299990912 0.9420222852363178 9.35505750029581 1 0 0
537 179 1 0.5897 -9.493151296226344 -0.08531832391900451 8.755123825662924 1 0 0
425 142 1 0.5897 -7.574285354381324 -1.3132404264214905 6.980093926364064 1 0 0
415 139 2 -1.1794 -8.839828933526519 1.5650191115549834 6.333178619111398 1 0 0
405 135 1 0.5897 -5.12634607035779 -2.7224054783934637 6.579239035850412 1 0 0
443 148 1 0.5897 -7.929571025419839 1.558457712186014 9.722995634129775 0 0 0
337 113 2 -1.1794 -6.463673378410544 0.07703136198763438 7.09857403465638 0 0 0
456 152 1 0.5897 -4.743017109784465 0.45264269768828314 10.008952927905858 0 0 0
329 110 1 0.5897 -3.5635680752491528 -1.1237985811386029 7.952309509642928 0 0 0
330 110 1 0.5897 -3.3325729075280153 -0.15819338984481135 6.809473832051688 0 0 0
360 120 1 0.5897 -5.636702223193199 -1.9157400764708035 8.790236224664396 0 0 0
338 113 1 0.5897 -6.02678133077947 0.24859747886516637 7.932821219898224 0 0 0
455 152 1 0.5897 -4.390999750734937 1.5327541446054482 9.008341415176696 0 0 0
339 113 1 0.5897 -5.7523108926850055 0.034023604030737786 6.459528346451238 0 0 0
328 110 2 -1.1794 -2.8697495249731526 -0.7209364669320983 7.430248107600911 0 0 0
454 152 2 -1.1794 -5.122639120544047 1.0017766192240583 9.322956438908681 0 0 0
358 120 2 -1.1794 -4.877369779673847 -2.275277768072775 8.331592438410121 0 0 0
416 139 1 0.5897 -7.994766589407198 1.2151983830687936 6.615620841588042 1 0 0
444 148 1 0.5897 -6.520644205547014 2.0643893040407715 9.497315511686423 0 0 0
464 155 1 0.5897 -2.0902985177506253 -0.20533146757753862 10.287974183819431 0 0 0
403 135 2 -1.1794 -5.013174251840907 -2.965716503472245 5.660411273211003 1 0 0
411 137 1 0.5897 -13.701746053309574 0.17794841990375687 6.1751802170940016 1 0 0
520 174 2 -1.1794 -10.867476075652036 2.40461440550842 8.225075422600426 1 0 0
417 139 1 0.5897 -9.047102498593937 1.0775494732534199 5.5359248147469575 1 0 0
434 145 1 0.5897 -6.540926571896016 -0.8120350581631985 10.896725424590548 0 0 0
772 258 2 -1.1794 -6.088660461975999 -2.1195350536053548 13.611733964418082 0 0 0
807 269 1 0.5897 -4.209881087517863 2.6292235678266156 11.821520357937615 0 0 0
896 299 1 0.5897 -8.320468579121261 2.3929444966753888 15.754515242594284 0 0 0
805 269 2 -1.1794 -4.841960707028514 2.6646666004312802 12.539490925538392 0 0 0
764 255 1 0.5897 -3.810884845727526 -1.3279309053353865 11.256478982986613 0 0 0
792 264 1 0.5897 -11.859891927822405 0.3298262795471949 14.393988654739509 0 0 0
865 289 2 -1.1794 -12.989830352919011 1.109364745144564 15.498868141161452 0 0 0
760 254 2 -1.1794 -9.09267053022698 1.54197327364502 12.824169520091647 0 0 0
837 279 1 0.5897 -11.315917296678933 -0.04328715671287853 12.059921975069818 1 0 0
791 264 1 0.5897 -11.168801758980777 -0.9808831624916614 14.084309931663139 0 0 0
762 254 1 0.5897 -9.564926968709438 1.9825865423440323 12.11768576246521 0 0 0
790 264 2 -1.1794 -11.239457943558628 -0.0738347219657669 13.787101534078376 0 0 0
761 254 1 0.5897 -9.758599941750571 1.014907746432545 13.2657012518711 0 0 0
828 276 1 0.5897 -4.044838712188868 0.43473369327694655 14.349063602500658 0 0 0
763 255 2 -1.1794 -3.704367476994669 -0.3820197260198519 11.15682609048546 0 0 0
897 299 1 0.5897 -8.019433476429636 2.188648916598064 14.28494557570958 0 0 0
924 308 1 0.5897 -2.9923272079600762 2.8572573947788467 15.325066428747716 0 0 0
835 279 2 -1.1794 -11.257323660265982 -0.38140802916502103 11.166348947137742 1 0 0
826 276 2 -1.1794 -3.292675225985257 0.11514199000542469 13.850724533806408 0 0 0
895 299 2 -1.1794 -7.599473532812248 2.372721125084839 15.125211102073923 0 0 0
888 296 1 0.5897 -10.843173122548535 2.9703295858574545 15.354758828906157 0 0 0
765 255 1 0.5897 -3.5705511112931605 -0.06042953694426245 12.048399690066143 0 0 0
784 262 2 -1.1794 -6.5445427217789325 0.3709802401231883 12.452728812203228 0 0 0
785 262 1 0.5897 -5.958398701445182 1.126873995785127 12.487135194146878 0 0 0
769 257 2 -1.1794 -12.710378647823802 2.6405316413097015 12.379644091902108 0 0 0
827 276 1 0.5897 -3.1783977614998005 -0.789251229461085 14.142411743237853 0 0 0
773 258 1 0.5897 -6.191434033519051 -1.2373751702997904 13.254914547671051 0 0 0
797 266 1 0.5897 -1.8201354728674275 1.044120744405772 13.213348242808133 0 0 0
786 262 1 0.5897 -7.423734645317839 0.7492740750805282 12.439912814651931 0 0 0
901 301 2 -1.1794 -5.226731183363437 0.9738908516928397 15.765586850204693 0 0 0
903 301 1 0.5897 -6.070589846973637 1.3721208176727693 15.55210519489028 0 0 0
806 269 1 0.5897 -4.3103176743667735 2.8225908379404796 13.319696560308785 0 0 0
771 257 1 0.5897 -11.957882420559429 2.7985151981197944 11.809501635854845 0 0 0
770 257 1 0.5897 -12.396581800580213 2.8588368751934787 13.25722970424202 0 0 0
836 279 1 0.5897 -11.126465435187601 -1.323336785614286 11.274400291409824 1 0 0
817 273 2 -1.1794 -5.800514196833427 -1.679609481077284 16.295793576446208 0 0 0
819 273 1 0.5897 -5.497927764201157 -0.7879435820976681 16.12421462532025 0 0 0
866 289 1 0.5897 -12.73162258167132 1.7071304081463463 16.20040521139515 0 0 0
1137 379 1 0.5897 -2.698909427791392 -1.377958276918661 16.647997152145678 0 0 0
1205 402 1 0.5897 -12.536198450169218 1.119629564895865 18.50676402124364 0 0 0
1196 399 1 0.5897 -10.062963679954741 1.1887695045516207 16.706025535630474 0 0 0
1251 417 1 0.5897 -11.891597550581498 1.753164838409326 21.529894574321133 0 0 0
1218 406 1 0.5897 -13.71487322426325 3.33585591346594 17.831196250783485 0 0 0
1287 429 1 0.5897 -3.7895353532570955 1.6151737057153355 21.757979684237384 0 0 0
1099 367 2 -1.1794 -10.276853661521738 -0.4107832262388893 17.118791102364945 0 0 0
1236 412 1 0.5897 -8.133031834840281 -0.32343785410965076 20.384735148146618 0 0 0
1009 337 2 -1.1794 -11.557606492372273 3.549336316649688 21.133335643320557 0 -1 0
1100 367 1 0.5897 -9.400553286460884 -0.6162680944184551 17.444640391190184 0 0 0
1234 412 2 -1.1794 -9.02449451790672 -0.00905621919722499 20.535394699055814 0 0 0
1259 420 1 0.5897 -9.299922952985657 1.6947024447764019 19.72588710996971 0 0 0
1258 420 2 -1.1794 -9.584359765000968 2.5437828623875074 19.387851392389962 0 0 0
1260 420 1 0.5897 -10.237334016627871 2.846685263158692 20.018799099091368 0 0 0
1216 406 2 -1.1794 -12.857666037075042 2.9189530960156578 17.743885501757056 0 0 0
1197 399 1 0.5897 -9.956652868957988 2.439041751815372 17.552785431603937 0 0 0
1206 402 1 0.5897 -11.476047732966604 0.04551532428646432 18.38831004029536 0 0 0
1235 412 1 0.5897 -9.568982895063904 -0.7940668174288152 20.477098392156947 0 0 0
1047 349 1 0.5897 -4.395879027021304 3.7480018447399424 20.778938910230423 0 -1 0
1204 402 2 -1.1794 -12.235341707021774 0.30538416525668133 18.91001906039059 0 0 0
1270 424 2 -1.1794 -1.3356448551246896 -0.06184013894656637 20.345723247300135 0 0 0
1240 414 2 -1.1794 -4.377361300269342 0.23102886891440555 18.94138489772896 0 0 0
1195 399 2 -1.1794 -9.871506449143284 2.1249942216353865 16.652584577028605 0 0 0
1241 414 1 0.5897 -4.558132232108918 1.0608458417425268 18.49998985910581 0 0 0
1249 417 2 -1.1794 -12.141147894514406 0.8329403494618433 21.61327343749059 0 0 0
1296 432 1 0.5897 -2.236194330276785 2.9267361102642386 19.976332132204213 0 0 0
1247 416 1 0.5897 -5.7363715496282435 -0.704127945951976 19.658629478547525 0 0 0
1246 416 2 -1.1794 -6.4570569315205635 -1.17938316418455 20.072121411923142 0 0 0
1242 414 1 0.5897 -3.6940178702681568 -0.17889805019244953 18.411095340571492 0 0 0
1135 379 2 -1.1794 -2.322231772512179 -0.8141458869547957 17.323578909775534 0 0 0
1232 411 1 0.5897 -1.9639996225632128 0.9548153310044682 16.559416695725183 0 0 0
1294 432 2 -1.1794 -1.7040313889913907 2.4641308656525833 19.329040358638203 0 0 0
1254 418 1 0.5897 -5.7008392578764635 3.1824606199813257 17.808454479698455 0 0 0
1136 379 1 0.5897 -1.442418220163363 -1.163734511206199 17.46496016961789 0 0 0
1271 424 1 0.5897 -1.9655873094176588 -0.7819639698926704 20.31879434431722 0 0 0
1252 418 2 -1.1794 -4.832568258016012 2.780406869777398 17.83496979045745 0 0 0
1286 429 1 0.5897 -4.149438495275998 0.504497822601488 20.794399321725045 0 0 0
1045 349 2 -1.1794 -3.556228017027184 3.491304750787652 21.160236301127867 0 -1 0
1295 432 1 0.5897 -1.6491372724270459 1.5677648443617844 19.66008806419812 0 0 0
1229 410 1 0.5897 -8.107376749087003 3.478707389885667 18.636804795588084 0 0 0
1253 418 1 0.5897 -4.230370423082434 3.5164228514334894 17.943441587885175 0 0 0
1231 411 2 -1.1794 -1.9569756348966934 1.9118666090269159 16.563427278894864 0 0 0
1233 411 1 0.5897 -2.0960992511009415 2.1489830219176707 17.480302304493428 0 0 0
1250 417 1 0.5897 -12.1025220885235 0.4919834694069234 20.719689582800783 0 0 0
1101 367 1 0.5897 -10.496856232786712 -1.1432689209096925 16.543317035765128 0 0 0
1272 424 1 0.5897 -0.4800042051211406 -0.49034428788884554 20.323352237799803 0 0 0
1011 337 1 0.5897 -12.343424752043898 3.877705409921587 20.696345778682605 0 -1 0
1131 377 1 0.5897 -7.391253796769065 -1.7277603322461017 17.176335109610974 0 0 0
1285 429 2 -1.1794 -3.986772846991639 0.679342457287925 21.721358220839186 0 0 0
902 301 1 0.5897 -4.823866978523387 1.5824395532825584 16.384891156553437 0 0 0
40 14 2 -1.1794 -15.311309434998542 3.728511350712724 1.6568790773600381 1 0 0
177 59 1 0.5897 -14.467111129301408 4.455015244726495 3.225664558911168 1 0 0
56 19 1 0.5897 -12.799003458806832 5.841526780591785 1.198946391252714 1 0 0
66 22 1 0.5897 -13.602979331508028 3.1535768990165938 1.6039670635696508 1 0 0
65 22 1 0.5897 -12.127160271328362 3.4819944814209656 1.682297121548754 1 0 0
64 22 2 -1.1794 -12.734768604449712 2.7535799228579734 1.5544038133710911 1 0 0
191 64 1 0.5897 -13.135305983682581 6.161789102281816 4.194190029910829 1 0 0
183 61 1 0.5897 -12.62449964499605 3.4797546921188935 4.396221770633552 1 0 0
175 59 2 -1.1794 -14.118753196074852 4.708486452401358 4.080460677816483 1 0 0
176 59 1 0.5897 -14.854068345369154 4.594618757847071 4.682639547382352 1 0 0
181 61 2 -1.1794 -11.748687694203781 3.3181225146757996 4.747132703701651 1 0 0
55 19 2 -1.1794 -13.547312119555684 6.265292475190977 0.778564722299931 1 0 0
42 14 1 0.5897 -15.701057637253843 4.3711365001181335 1.0641344367024712 1 0 0
108 36 1 0.5897 -10.081421749514558 2.8997461117049728 3.6508461733218445 1 0 0
190 64 2 -1.1794 -12.524431425887437 6.886676028229216 4.326505043060917 1 0 0
111 37 1 0.5897 -4.76237074499619 3.6595262988065773 4.440116389620915 0 0 0
85 29 2 -1.1794 -11.16928441737184 5.020729290559855 1.7090058542503934 1 0 0
86 29 1 0.5897 -10.944915175322672 5.289202919996308 2.599981589769286 1 0 0
1010 337 1 0.5897 -13.119628702312585 1.633995917899652 0.09092291795394566 0 -1 1
45 15 1 0.5897 -9.745040817083327 2.2422885528626697 1.133603043470766 1 0 0
106 36 2 -1.1794 -9.400643055098506 2.5949830953119193 3.0509374903868376 1 0 0
192 64 1 0.5897 -11.666438542015877 6.468015395787365 4.3959364872598155 1 0 0
101 34 1 0.5897 -4.618889603620228 3.295435889277428 1.444006157901358 1 0 0
162 54 1 0.5897 -14.802981113801664 6.870259848201629 1.9180003635069178 1 0 0
87 29 1 0.5897 -10.435252315363595 5.324240986985753 1.174841597394219 1 0 0
212 71 1 0.5897 -6.989980263212152 4.467945311587183 4.714334833307278 1 0 0
76 26 2 -1.1794 -7.439003164127483 3.862742351667123 1.7753313236698933 1 0 0
102 34 1 0.5897 -6.035008486248002 2.8512245510723258 1.7427943779739872 1 0 0
204 68 1 0.5897 -9.483996828009895 5.318830174818306 4.573848790864062 1 0 0
211 71 2 -1.1794 -6.251390005462298 4.593261587163999 4.118470835435121 1 0 0
100 34 2 -1.1794 -5.152191974038641 2.51419429921061 1.5901719668629202 1 0 0
203 68 1 0.5897 -9.068768423018298 6.358605388605083 3.554906690838061 1 0 0
77 26 1 0.5897 -8.153237908503927 3.397988985580893 2.2113407603613253 1 0 0
213 71 1 0.5897 -6.624138873710847 4.4713324485560495 3.2452609770280665 1 0 0
202 68 2 -1.1794 -9.83952883025925 5.966554414970325 3.9653548798390794 1 0 0
78 26 1 0.5897 -7.875522959822655 4.440483752811009 1.149327340393573 1 0 0
198 66 1 0.5897 -7.097635011696968 6.824518965451915 2.1597050297416978 1 0 0
167 56 1 0.5897 -16.96318868604766 6.076494706188328 3.1260387501979467 1 0 0