LAMMPS data file via write_data, version 30 Jul 2021, timestep = 3250000

1296 atoms
2 atom types
864 bonds
1 bond types
432 angles
1 angle types

-10.50077380952768 12.48077380952768 xlo xhi
-9.114884131588877 12.104882131588877 ylo yhi
0.1786235823331861 21.68137541767372 zlo zhi
-9.13346276112711 2.0052626551154287 2.6647025808212383 xy xz yz

Masses

1 1.008
2 15.999

Pair Coeffs # lj/cut/tip4p/long/omp

1 0 0
2 0.21084 3.1668

Bond Coeffs # harmonic/omp

1 450 0.9572

Angle Coeffs # harmonic/omp

1 55 104.52

Atoms # full

282 94 1 0.5897 -10.310794183375661 -4.1322941618834035 1.5317718341777398 1 1 0
3 1 1 0.5897 -1.4526777477796653 -3.3671696878063226 4.484179538998285 0 0 0
280 94 2 -1.1794 -9.441658113552586 -4.530083942592901 1.4807859691203926 1 1 0
299 100 1 0.5897 -6.356558180280068 -7.920223753406708 4.119552535461944 1 1 0
163 55 2 -1.1794 -7.051872935012215 -8.109614289144533 0.9190575687796102 1 1 0
164 55 1 0.5897 -6.17594862735254 -8.429539706386562 1.1349262581723742 1 1 0
270 90 1 0.5897 -8.31800427502257 -7.440166205784596 2.0389607952433257 1 1 0
269 90 1 0.5897 -9.093038927087889 -6.148330180516018 2.188030885356466 1 1 0
268 90 2 -1.1794 -8.992401632547484 -7.019220841611119 2.5721009765971448 1 1 0
324 108 1 0.5897 -6.880135697194531 -4.287148053470376 3.683218418752995 1 1 0
73 25 2 -1.1794 -8.17132883773522 -3.730547149545881 4.906500824510737 1 0 0
298 100 2 -1.1794 -5.746503204930827 -7.1830996098355735 4.144084488104257 1 1 0
314 105 1 0.5897 -8.781822957307034 -6.6842451829689775 4.411236216686556 1 1 0
310 104 2 -1.1794 -3.337893183230886 -8.308817928247747 3.7249052228827 1 1 0
322 108 2 -1.1794 -6.226265431166912 -4.708771295962365 3.125604920811424 1 1 0
293 98 1 0.5897 -4.815641448593673 -3.7162793741215427 2.4450474118763346 1 1 0
165 55 1 0.5897 -7.33430877472326 -8.658565217570322 0.18762343263273093 1 1 0
300 100 1 0.5897 -4.900858697760755 -7.5633855318523615 3.90634885641853 1 1 0
261 87 1 0.5897 -6.556050390040387 -5.073148976156732 1.246454329736111 1 1 0
316 106 2 -1.1794 -1.8513367665555887 -4.5661536595570755 1.80907387839958 1 1 0
323 108 1 0.5897 -6.164027034010769 -5.6025102043124235 3.462422566295806 1 1 0
311 104 1 0.5897 -2.5706451330357707 -7.806522423899089 3.450674244491808 1 1 0
304 102 2 -1.1794 -1.1898847356564985 -6.923787490729673 2.8606819790789944 1 1 0
243 81 1 0.5897 -0.8477581935548866 -5.470513396251945 5.4923876763761035 0 1 0
275 92 1 0.5897 -10.32556155690571 -8.027722750347637 3.1534584318174255 1 1 0
318 106 1 0.5897 -2.7240274849238686 -4.177779279229466 1.8708092070143802 1 1 0
305 102 1 0.5897 -1.3777295514262722 -6.041156941306353 2.541672571678226 1 1 0
315 105 1 0.5897 -8.592400034271915 -5.456442553427394 5.276237124536906 1 1 0
306 102 1 0.5897 -0.5714898966528388 -7.282501988915831 2.2241655812241823 1 1 0
242 81 1 0.5897 -0.8689754972183277 -6.657393561847462 4.552956936685289 0 1 0
313 105 2 -1.1794 -8.698778968551437 -6.406470913206731 5.3234102055661365 1 1 0
281 94 1 0.5897 -8.835548588636833 -3.7940612559790656 1.5645943512532166 1 1 0
317 106 1 0.5897 -1.271495692447946 -3.826198542317278 1.6291408758349049 1 1 0
241 81 2 -1.1794 -0.8635124595149382 -6.427461238197188 5.482063570067959 0 1 0
260 87 1 0.5897 -6.716091573745208 -6.326922595701358 0.41334405650889733 1 1 0
259 87 2 -1.1794 -6.584454766632401 -5.381666023510872 0.340834400207847 1 1 0
1 1 2 -1.1794 -0.6549917697660508 -3.719775309194718 4.878550488582205 0 0 0
1262 421 1 0.5897 -2.051031539690104 -5.684267527863264 0.2522634914159574 0 0 1
201 67 1 0.5897 0.32636745370245457 -8.562432406388599 0.4407152795135592 1 1 0
420 140 1 0.5897 -8.934346994486608 -6.608482828210763 9.950422324115037 1 0 0
414 138 1 0.5897 -6.711793293672485 -5.107415003324033 7.531304477194161 1 0 0
413 138 1 0.5897 -7.3780017974237815 -3.7645202478678 7.742329646735589 1 0 0
412 138 2 -1.1794 -7.259073383768305 -4.622676713008719 8.149159667147828 1 0 0
350 117 1 0.5897 -6.870832271485954 -4.262458833973592 9.922224346597398 0 0 0
429 143 1 0.5897 -6.41618714049903 -7.1953091995770615 8.755385816477201 1 0 0
428 143 1 0.5897 -6.695606795498257 -7.182335847184701 10.243150875729913 1 0 0
427 143 2 -1.1794 -5.989583761023367 -7.081947400402483 9.604656439585726 1 0 0
627 209 1 0.5897 -10.102195258224874 -6.595169282072864 6.259760175498832 1 1 0
618 206 1 0.5897 -7.6243108414033856 -7.225453384084105 6.605866425604302 1 1 0
419 140 1 0.5897 -8.579776501101028 -5.6549759625428875 8.829403035302631 1 0 0
418 140 2 -1.1794 -9.312302224360165 -6.144561402941401 9.203418753715209 1 0 0
404 135 1 0.5897 -5.195216639376534 -3.776385392661651 5.735023101900019 1 0 0
349 117 2 -1.1794 -6.945758257257481 -3.914741699108716 10.810836209565231 0 0 0
554 185 1 0.5897 -2.7653017121058694 -6.743237884161887 7.717852956980173 0 1 0
544 182 2 -1.1794 0.4490623340997235 -8.12422665543225 7.406097889989805 0 1 0
631 211 2 -1.1794 -5.372238088476158 -5.470478839229699 6.3145131645687895 1 1 0
356 119 1 0.5897 1.248838356328008 -7.05340112896127 10.271337773462704 0 0 0
335 112 1 0.5897 -4.801531648226499 -5.559395698896333 9.613062482222809 0 0 0
555 185 1 0.5897 -2.4247433449769122 -6.848564373816521 6.2465796204917 0 1 0
553 185 2 -1.1794 -3.139861801342236 -6.979290101329773 6.869270974659459 0 1 0
346 116 2 -1.1794 -1.7192230539549556 -6.005529079182104 9.156066836478299 0 0 0
546 182 1 0.5897 0.12763712428487395 -7.475878315064461 6.779667536953107 0 1 0
347 116 1 0.5897 -1.0291190164965514 -5.520679416332907 8.703459623879187 0 0 0
336 112 1 0.5897 -3.351757008665796 -5.133957384053806 9.518305100724556 0 0 0
334 112 2 -1.1794 -4.245192200935366 -4.794069534301593 9.46856852842126 0 0 0
359 120 1 0.5897 -4.590880162461048 -3.1776622231346927 8.772079806385298 0 0 0
348 116 1 0.5897 -1.2662627866899125 -6.46230052644653 9.864785017573643 0 0 0
632 211 1 0.5897 -4.563480043783626 -5.878249820443882 6.624033461060295 1 1 0
616 206 2 -1.1794 -7.237059089928045 -7.832586548985047 7.236352218767182 1 1 0
351 117 1 0.5897 -6.890626052383417 -2.965367300207852 10.702486682190678 0 0 0
633 211 1 0.5897 -5.663840152268041 -6.031219382833308 5.595727617468606 1 1 0
626 209 1 0.5897 -10.35992203013303 -6.555175969048802 7.750957170871392 1 1 0
357 119 1 0.5897 1.3750271488235857 -7.30363141946753 8.783674951671633 0 0 0
326 109 1 0.5897 -3.2890092838626126 -7.7149070154314705 10.724141091615603 0 0 0
669 223 1 0.5897 -4.076971724680838 -3.5871096021626645 10.926844500340387 0 0 0
74 25 1 0.5897 -7.789336398565888 -3.1794670156269405 5.58950799542759 1 0 0
652 218 2 -1.1794 -5.619612544222543 -5.389316201576527 12.538670176964448 0 0 0
780 260 1 0.5897 -7.4001987047653675 -4.069664603348038 15.198673342687885 0 0 0
779 260 1 0.5897 -7.225192803690874 -3.022285251153189 14.119829226753337 0 0 0
778 260 2 -1.1794 -7.894453573654236 -3.4880622827831758 14.621142331935504 0 0 0
768 256 1 0.5897 -9.424983050538593 -2.8108860754861276 14.928649619638652 0 0 0
654 218 1 0.5897 -5.954980044889039 -4.811373050813355 11.853397942952599 0 0 0
653 218 1 0.5897 -6.395369966493162 -5.837777767851756 12.875226399816581 0 0 0
689 230 1 0.5897 1.3249377659752835 -5.954772181294791 13.084485954030088 0 0 0
727 243 2 -1.1794 -8.041154433126302 -7.44225019493782 11.244777763755481 1 0 0
740 247 1 0.5897 -10.63854287507849 -3.342382505837662 11.940638993187061 1 0 0
729 243 1 0.5897 -7.879223496986889 -7.129176193548792 12.134653855885796 1 0 0
684 228 1 0.5897 -8.239380079804892 -6.350007883831276 14.444129791310386 0 0 0
682 228 2 -1.1794 -7.577702228297565 -6.691118842744912 13.842402600767162 0 0 0
663 221 1 0.5897 -8.493505590353674 -4.490852381910463 11.713840335062274 0 0 0
662 221 1 0.5897 -8.751286134907152 -4.182508336745023 13.173355817408732 0 0 0
661 221 2 -1.1794 -9.174524521261741 -4.523852320018882 12.385662273884554 0 0 0
788 263 1 0.5897 -4.8355447321378096 -4.707915737064592 15.5268323095037 0 0 0
766 256 2 -1.1794 -10.291884744360937 -2.428183436289684 15.063793087942702 0 0 0
678 226 1 0.5897 -4.070133461099704 -6.192741199380123 12.263609391086408 0 0 0
772 258 2 -1.1794 -5.761076832811595 -2.1814532430893196 13.565248946975416 0 0 0
677 226 1 0.5897 -2.5860563006083277 -5.93528643354732 12.415444515919711 0 0 0
699 233 1 0.5897 -0.8069203235655245 -4.410772942023549 11.82524531023277 0 0 0
668 223 1 0.5897 -3.0472915483809695 -3.467113497862705 12.03000285744798 0 0 0
816 272 1 0.5897 0.5944290113173469 -4.018844904104024 15.473091403753598 0 0 0
814 272 2 -1.1794 0.06114926642796803 -3.6956139183128895 14.746985373198235 0 0 0
804 268 1 0.5897 -1.6627614495048046 -2.865901533322889 14.959017405059011 0 0 0
803 268 1 0.5897 -3.1515355993737826 -3.131457705374231 14.889308830754608 0 0 0
802 268 2 -1.1794 -2.5086743267111107 -2.422371032395663 14.896346935860645 0 0 0
795 265 1 0.5897 -2.6956643219530774 -5.583019279990311 15.562989711552728 0 0 0
793 265 2 -1.1794 -1.8768770506148726 -5.974544522077027 15.867055415743817 0 0 0
720 240 1 0.5897 -0.7680672699785269 -6.490382650172016 14.51939001841304 0 0 0
718 240 2 -1.1794 -0.12917847723911535 -6.801607631474897 13.878136361943131 0 0 0
698 233 1 0.5897 -0.9812260143824361 -4.45656462678078 13.328301415648603 0 0 0
667 223 2 -1.1794 -3.849396205908949 -3.0653173564086886 11.69630071237427 0 0 0
657 219 1 0.5897 -0.42631055031590037 -6.881459402624278 12.078114247550475 0 0 0
676 226 2 -1.1794 -3.218017815442492 -6.626328295836864 12.217428314537068 0 0 0
697 233 2 -1.1794 -1.4740698048951462 -4.479940337457649 12.508146176287786 0 0 0
789 263 1 0.5897 -4.546688020033714 -4.736146326426187 14.041081011838884 0 0 0
787 263 2 -1.1794 -4.126263817548711 -4.609791706956081 14.891598297935209 0 0 0
774 258 1 0.5897 -5.176603772720455 -2.600454622910032 12.933531170695447 0 0 0
758 253 1 0.5897 -9.289613961425557 -5.371150175662139 16.250783380340522 0 0 0
757 253 2 -1.1794 -9.556451941521951 -5.926556600761023 15.518362776724672 0 0 0
655 219 2 -1.1794 -0.382408723793187 -7.2335728198327125 11.189164255947109 0 0 0
1089 363 1 0.5897 -6.341557728369347 -4.647130809785702 17.381763287729896 0 0 0
1248 416 1 0.5897 -5.617619286669091 -1.6982691471126863 20.744346283537993 0 0 0
1152 384 1 0.5897 -6.63224470101656 -4.327919653293574 19.70360601701217 0 0 0
1225 409 2 -1.1794 -7.851529067010738 -3.6336111223694836 20.94433369316124 0 0 0
1227 409 1 0.5897 -8.634746303191017 -3.2289269866271173 20.571559998473717 0 0 0
1109 370 1 0.5897 -8.58350234559721 -3.5969646508450968 17.642319323236286 0 0 0
1219 407 2 -1.1794 -10.014527946034661 -2.331430085767934 20.06569489917279 0 0 0
1108 370 2 -1.1794 -9.213519774604407 -4.315595927324356 17.69494422159628 0 0 0
1110 370 1 0.5897 -10.06908133403779 -3.887344833102354 17.666066164284103 0 0 0
1151 384 1 0.5897 -5.821548627459485 -5.589263887825269 19.494928088194563 0 0 0
1150 384 2 -1.1794 -6.000479534534449 -4.73197676348963 19.108749559765904 0 0 0
1165 389 2 -1.1794 0.19071272694496422 -1.9149509753347624 17.787730694431318 0 0 0
1121 374 1 0.5897 -4.67876050637401 -3.617500332087033 18.644823575322327 0 0 0
1096 366 2 -1.1794 -8.568627604641884 -6.771481407238866 18.815998186450017 0 0 0
1129 377 2 -1.1794 -7.490133844896368 -1.9822817763624716 17.889090502070516 0 0 0
1097 366 1 0.5897 -8.813773873665458 -5.919652895616857 18.45490821094998 0 0 0
1130 377 1 0.5897 -7.124850844964897 -1.8088613470273724 18.756614416144693 0 0 0
1177 393 2 -1.1794 -0.6453283123295179 -6.22043529652654 21.354105366965562 0 0 0
1124 375 1 0.5897 1.4758273474465007 -5.830970097327013 16.70389138829389 0 0 0
1143 381 1 0.5897 -8.025364143429705 -5.414161343347267 21.43724006384334 0 0 0
1178 393 1 0.5897 -0.6698356236908296 -6.444038736456967 20.423764811235486 0 0 0
1141 381 2 -1.1794 -8.220882047696195 -6.349048832475349 21.4992776375516 0 0 0
1187 396 1 0.5897 1.8729667048410121 -5.30904385155698 19.65807549517657 0 0 0
1088 363 1 0.5897 -6.392375897934782 -5.818780823966189 16.424524628512494 0 0 0
1131 377 1 0.5897 -6.75239098448329 -1.8658784198599498 17.290413650583844 0 0 0
1144 382 2 -1.1794 -1.4179902215920421 -4.187287390925487 17.91688959919781 0 0 0
1257 419 1 0.5897 -2.909670980026265 -2.3149384502096932 19.50722841819298 0 0 0
1122 374 1 0.5897 -4.511538702846047 -2.611473843372644 17.526121880429898 0 0 0
1133 378 1 0.5897 -1.094434910980608 -5.833058323622273 18.473133744822775 0 0 0
1120 374 2 -1.1794 -4.043981816029277 -3.0149490733367355 18.25734971946156 0 0 0
1188 396 1 0.5897 1.0772897087575153 -4.022053389352248 19.705918349683905 0 0 0
1255 419 2 -1.1794 -2.4653479309298554 -2.0927433835174325 20.32534063804176 0 0 0
1256 419 1 0.5897 -3.099393382950163 -2.308746772177688 21.009105382895214 0 0 0
1261 421 2 -1.1794 -0.28372562275547786 -3.5809602448840234 21.01722875463858 0 0 0
1263 421 1 0.5897 -1.1232736138271928 -3.235540069373858 20.713887611742358 0 0 0
1146 382 1 0.5897 -2.2572327921587476 -3.736170927498895 18.00854789157414 0 0 0
1145 382 1 0.5897 -0.7781310438154172 -3.4839415547131747 17.80726764610238 0 0 0
1132 378 2 -1.1794 -1.0715454346015338 -6.766721891547591 18.68251196977193 0 0 0
1179 393 1 0.5897 -0.4881682787909938 -5.2764299504324335 21.369980634899655 0 0 0
1123 375 2 -1.1794 1.519445695405187 -4.874912157470039 16.716197306031425 0 0 0
1087 363 2 -1.1794 -6.3638254822819595 -4.8623971760636415 16.449403968142597 0 0 0
1221 407 1 0.5897 -10.491447875820812 -2.5081999825186063 19.254889971263196 0 0 0
1226 409 1 0.5897 -7.615658993773302 -3.067621666750181 21.679276856227297 0 0 0
794 265 1 0.5897 -1.5279305475607607 -5.34300713974367 16.495951524445083 0 0 0
292 98 2 -1.1794 -4.175560155529318 -3.2255179013593303 1.9296652645693357 1 1 0
97 33 2 -1.1794 -11.614497226277187 0.5927304787387282 5.481108983839744 1 0 0
103 35 2 -1.1794 -2.9412705404952666 -2.2247767522821933 4.173950476581556 1 0 0
67 23 2 -1.1794 -10.373157492959352 -2.329707051293134 4.1015790657360505 1 0 0
68 23 1 0.5897 -11.093150276232832 -2.418961820141833 4.725977951049104 1 0 0
107 36 1 0.5897 -9.227370178690531 1.5218481960257328 3.4202285904629437 1 0 0
301 101 2 -1.1794 -7.9965426013395335 -2.26397934791635 1.6938149888052576 1 1 0
98 33 1 0.5897 -11.648713656885116 0.39257639104060615 4.54575090898306 1 0 0
69 23 1 0.5897 -10.756585225566736 -2.5678251747677443 3.2575495441179414 1 0 0
272 91 1 0.5897 -9.561648073410026 -1.2106489817414392 1.2137275145274893 1 1 0
271 91 2 -1.1794 -10.414438207412205 -0.8678256537529361 0.9465132702142626 1 1 0
258 86 1 0.5897 -12.266361244564225 -2.8456187273903426 1.2448823637833688 1 1 0
52 18 2 -1.1794 -12.141269555799212 0.13243798047547273 2.7787665973421163 1 0 0
53 18 1 0.5897 -12.241101637335412 0.9837009759728019 2.352779790160127 1 0 0
54 18 1 0.5897 -11.504447548736534 -0.3337510037822291 2.237132546110996 1 0 0
82 28 2 -1.1794 -8.847482456708716 -0.056174765721429765 4.140884259889678 1 0 0
83 28 1 0.5897 -9.462168113934528 -0.7789967428792082 4.266658817719282 1 0 0
25 9 2 -1.1794 -4.217798195370243 0.4782470819061686 5.391663130664561 0 0 0
84 28 1 0.5897 -7.997984458552768 -0.4812485471475618 4.02296131733636 1 0 0
256 86 2 -1.1794 -11.837989003350577 -3.37148141537112 1.9202014254137563 1 1 0
99 33 1 0.5897 -11.479117797043083 1.5394718975506123 5.519142969877213 1 0 0
302 101 1 0.5897 -7.606823550407857 -2.0081837437978685 2.5297540551981887 1 1 0
294 98 1 0.5897 -4.695858130484626 -2.7833866389739184 1.2589133049605992 1 1 0
303 101 1 0.5897 -7.297993926908207 -2.1317230017887754 1.0529075939360597 1 1 0
104 35 1 0.5897 -3.628263236564764 -2.4362842846544748 4.8060262925580375 1 0 0
94 32 2 -1.1794 -6.577092948317378 -1.3444912430971376 3.8956969131444406 1 0 0
88 30 2 -1.1794 -4.506587453373986 -0.03131769589085032 2.615221491855135 1 0 0
26 9 1 0.5897 -4.215489331013411 0.14316273978254657 4.495084321045924 0 0 0
89 30 1 0.5897 -4.626396675472632 0.8847911819497778 2.365251719106415 1 0 0
96 32 1 0.5897 -6.074072062085417 -1.791022022110198 4.576638162922054 1 0 0
105 35 1 0.5897 -3.350856089922451 -2.361278511218779 3.319722238397853 1 0 0
95 32 1 0.5897 -5.9304669622420105 -0.8173946804381931 3.42643151424974 1 0 0
90 30 1 0.5897 -3.8089285457073574 -0.3474793378946348 2.041141620464388 1 0 0
27 9 1 0.5897 -4.199904101744168 1.4300269269212311 5.292198650884676 0 0 0
59 20 1 0.5897 -13.514374529287863 -0.834018959360197 3.372805073772963 1 0 0
44 15 1 0.5897 -10.100707946292475 0.9511274659529274 0.3973690884656109 1 0 0
309 103 1 0.5897 -2.78710494539862 -1.427484931947462 0.33653098234936185 1 1 0
75 25 1 0.5897 -8.918752455450011 -3.227897113648086 4.582679952595735 1 0 0
273 91 1 0.5897 -10.678723609422457 -1.425572605167738 0.2149477770538707 1 1 0
424 142 2 -1.1794 -7.708692670091997 -2.0987139537054587 7.110230947018283 1 0 0
402 134 1 0.5897 -10.659801212260874 -0.3386415096865747 6.785353880576356 1 0 0
401 134 1 0.5897 -10.851347610286451 -1.3709222760381685 7.875883716361134 1 0 0
411 137 1 0.5897 -13.200102747229638 0.23026484824132076 6.3282723116197745 1 0 0
527 176 1 0.5897 -11.641509785356217 1.8259679394011243 8.790574448868773 1 0 0
526 176 2 -1.1794 -12.432156346962364 1.3897305656161087 9.108011694167377 1 0 0
400 134 2 -1.1794 -10.181955568795518 -0.8367276149428289 7.448431163059148 1 0 0
426 142 1 0.5897 -8.589388729011478 -1.7269672525127708 7.159359172579147 1 0 0
537 179 1 0.5897 -9.235118295998511 -0.06286502057134946 8.856747052121369 1 0 0
536 179 1 0.5897 -9.582675229013029 0.14524116394341036 10.31538475845134 1 0 0
535 179 2 -1.1794 -8.875453948002171 0.2638831108159625 9.681358742573341 1 0 0
528 176 1 0.5897 -12.11594813585143 0.7650755810321126 9.76062659276301 1 0 0
435 145 1 0.5897 -7.382705318928117 -0.8544360572051737 9.868018747929794 0 0 0
443 148 1 0.5897 -7.974881701696078 1.7551274015996796 9.613691505365937 0 0 0
425 142 1 0.5897 -7.125492977803813 -1.3551153529640922 7.262082983115799 1 0 0
522 174 1 0.5897 -9.44940489963107 2.3464813517339707 7.622505879440481 1 0 0
415 139 2 -1.1794 -8.295350351610985 1.5770775480238743 6.338708294874649 1 0 0
405 135 1 0.5897 -5.154144136740785 -2.5854709278830805 6.6686710186136615 1 0 0
360 120 1 0.5897 -5.327132921269117 -1.897147909297126 9.10371701837082 0 0 0
339 113 1 0.5897 -5.552873683738911 0.22096297795555486 6.564831580813633 0 0 0
358 120 2 -1.1794 -4.685605299496321 -2.2659624784592056 8.496539333373404 0 0 0
338 113 1 0.5897 -5.759377442436136 0.5519648757490501 8.027534776647112 0 0 0
464 155 1 0.5897 -2.078465840779735 -0.05560771896271355 10.175956899843548 0 0 0
337 113 2 -1.1794 -6.184242915174329 0.1334246826207366 7.278922179427209 0 0 0
328 110 2 -1.1794 -2.7124754191037557 -0.8546724416569944 7.29033200652707 0 0 0
442 148 2 -1.1794 -7.346638040738879 2.47685501400829 9.590268304466838 0 0 0
456 152 1 0.5897 -4.5838910201339615 0.6507355099897847 10.082101940183009 0 0 0
444 148 1 0.5897 -6.490103769968526 2.0495823387739414 9.58985129148169 0 0 0
454 152 2 -1.1794 -4.872625751042829 1.237493172301395 9.383222030862726 0 0 0
330 110 1 0.5897 -3.1407619772707616 -0.29852224426256235 6.639669368208392 0 0 0
455 152 1 0.5897 -4.063643232612098 1.5150952983829917 8.953452593759355 0 0 0
329 110 1 0.5897 -3.433763751490085 -1.258286578542572 7.773055388347008 0 0 0
416 139 1 0.5897 -7.5487328961819875 1.0829080984752721 6.677115561331453 1 0 0
433 145 2 -1.1794 -6.600392270925486 -1.2693583628262068 10.2313234068118 0 0 0
403 135 2 -1.1794 -5.10327807821951 -2.8237132704976133 5.743036395942383 1 0 0
465 155 1 0.5897 -1.871079991389669 -0.051301324699640105 8.676408042967127 0 0 0
410 137 1 0.5897 -13.357365347000515 0.49324892376281326 7.810765148910037 1 0 0
516 172 1 0.5897 -13.986100481031647 2.121894180072582 9.176818550382958 1 0 0
417 139 1 0.5897 -8.69671905532992 0.9941723240503944 5.694320215714764 1 0 0
769 257 2 -1.1794 -12.254593763653556 2.6561871422552414 12.461696181810716 0 0 0
836 279 1 0.5897 -11.240703268918434 -1.2638054728002697 11.083849194100408 1 0 0
770 257 1 0.5897 -11.799498406968606 2.8398173246803484 13.283446309096227 0 0 0
817 273 2 -1.1794 -5.357316070048837 -1.5335356659773964 16.229117909437527 0 0 0
896 299 1 0.5897 -7.614031371881565 2.224312958430721 15.388672447876264 0 0 0
771 257 1 0.5897 -11.585709205217007 2.7695016556504335 11.786440032398549 0 0 0
760 254 2 -1.1794 -8.765649075390204 1.6694090181615486 12.67136935948965 0 0 0
762 254 1 0.5897 -9.204330397454754 2.2100711142674214 12.014612861970832 0 0 0
792 264 1 0.5897 -11.429878766051218 0.5581528968442449 14.432151564271276 0 0 0
837 279 1 0.5897 -11.195123952491059 -0.07406911495325197 12.018787813242263 1 0 0
791 264 1 0.5897 -10.460811699933029 -0.596706308622041 14.29427838969625 0 0 0
790 264 2 -1.1794 -10.789530603576452 0.1747246501083115 13.832831806269454 0 0 0
761 254 1 0.5897 -9.478724671679466 1.2387720313495159 13.1428183412272 0 0 0
806 269 1 0.5897 -4.182384540067566 2.8195215792324575 13.368974189927624 0 0 0
818 273 1 0.5897 -5.422528126120974 -1.9067262322976228 15.350134821276232 0 0 0
763 255 2 -1.1794 -3.59543861276918 -0.3687731875841429 11.212370765735521 0 0 0
897 299 1 0.5897 -7.615054970021579 2.379677034058993 13.882863970494657 0 0 0
924 308 1 0.5897 -2.6650512202057905 3.0169779076522616 15.433024062620417 0 0 0
765 255 1 0.5897 -3.334005765771904 -0.1756825727965463 12.112635700067623 0 0 0
827 276 1 0.5897 -2.6183554551077863 -0.6894861613956405 14.231283292428246 0 0 0
797 266 1 0.5897 -1.609483562523934 1.227139830842816 13.031846037580962 0 0 0
901 301 2 -1.1794 -4.928177923563568 0.9547140260405182 15.466051420876882 0 0 0
826 276 2 -1.1794 -2.7829030982323957 0.1561481163223828 13.814251790868992 0 0 0
807 269 1 0.5897 -3.999225401568709 2.720484491329618 11.86953614863585 0 0 0
903 301 1 0.5897 -5.675455610770686 1.347745873840518 15.01522799193092 0 0 0
828 276 1 0.5897 -3.4884642223871696 0.5453189382611434 14.330954204442476 0 0 0
895 299 2 -1.1794 -7.078723710439139 2.537715310977724 14.6596994203969 0 0 0
773 258 1 0.5897 -5.90062917421598 -1.301318106006791 13.215994941624421 0 0 0
784 262 2 -1.1794 -6.295491993400741 0.34649870351677414 12.571962276064104 0 0 0
785 262 1 0.5897 -5.636680968599855 1.0397527570752292 12.610630166672308 0 0 0
786 262 1 0.5897 -7.124537810146334 0.8096471984792721 12.45203640489164 0 0 0
805 269 2 -1.1794 -4.593261039112695 2.4716157621460386 12.57761529884571 0 0 0
819 273 1 0.5897 -5.141823873232771 -0.6124406738636452 16.083375133281564 0 0 0
764 255 1 0.5897 -3.7611803913852704 -1.3114298617940268 11.207540287787229 0 0 0
835 279 2 -1.1794 -11.19267212235968 -0.3079034439517283 11.09064192393136 1 0 0
888 296 1 0.5897 -10.097662416207172 3.0349311581097194 15.232457624958291 0 0 0
902 301 1 0.5897 -4.710102828167647 1.578863874257328 16.158149263968436 0 0 0
434 145 1 0.5897 -6.344280307350841 -0.7028058001378223 10.959021327722443 0 0 0
1196 399 1 0.5897 -9.480944581550517 0.9677956982410603 16.39347645730883 0 0 0
1241 414 1 0.5897 -4.324932517163467 1.088004953713261 18.337873072476626 0 0 0
1232 411 1 0.5897 -1.8569832186616129 1.0112974016529996 16.45661996286323 0 0 0
1240 414 2 -1.1794 -4.157525624644823 0.1996730544609342 18.652400118924476 0 0 0
1295 432 1 0.5897 -1.1551462007615 1.6752776075990514 19.541095689886966 0 0 0
1250 417 1 0.5897 -11.27751845972118 0.4857548345621261 20.69205449602041 0 0 0
1205 402 1 0.5897 -11.763964728676456 1.0959848080668522 18.688209319872108 0 0 0
1231 411 2 -1.1794 -1.7092401301567897 1.9568407122236113 16.441876910910302 0 0 0
1100 367 1 0.5897 -8.993236665025314 -1.1285647848536513 17.353878165613715 0 0 0
1009 337 2 -1.1794 -11.05831932267835 3.46686207077906 21.050488816915724 0 -1 0
1260 420 1 0.5897 -9.751271014206342 2.8917775719349343 19.704665916015955 0 0 0
1259 420 1 0.5897 -8.911484841661432 1.6428662839266828 19.541109114014148 0 0 0
1258 420 2 -1.1794 -9.01571625383215 2.533905160671491 19.207530959900843 0 0 0
1236 412 1 0.5897 -7.755312945095726 -0.2163600666532588 20.333890740134635 0 0 0
1235 412 1 0.5897 -9.184669533773281 -0.6635221782907603 20.113060861981666 0 0 0
1234 412 2 -1.1794 -8.656316148612376 0.10657382727777787 20.322595626993618 0 0 0
1197 399 1 0.5897 -9.44815325597564 2.1973267124586755 17.275992797169444 0 0 0
1216 406 2 -1.1794 -12.243373085429285 2.6578544841634173 17.81724653012538 0 0 0
1206 402 1 0.5897 -10.988344845401297 -0.15469488101308038 18.33326109131592 0 0 0
1099 367 2 -1.1794 -9.801541954842136 -0.686195320995413 17.09477983303765 0 0 0
1296 432 1 0.5897 -2.12123808320065 2.83411626319017 19.665832645685867 0 0 0
1217 406 1 0.5897 -11.57914647544936 3.346757933016711 17.79864543395896 0 0 0
1287 429 1 0.5897 -3.7062310537409955 1.717604661496047 21.536895722164637 0 0 0
1011 337 1 0.5897 -11.816418875985843 3.8835097330954227 20.640805509159946 0 -1 0
1251 417 1 0.5897 -11.131857808096616 1.7994950729228787 21.42995217725911 0 0 0
1270 424 2 -1.1794 -0.8688442327579331 0.1431930543661224 20.40111224520352 0 0 0
1242 414 1 0.5897 -3.411145771070304 -0.10168294254116717 18.134367476502902 0 0 0
1229 410 1 0.5897 -7.752403326249678 3.471243256312178 18.323961162072102 0 0 0
1286 429 1 0.5897 -3.6356471724129884 0.4350005377234112 20.735886487006503 0 0 0
1272 424 1 0.5897 0.004122444812049153 -0.24884308748495343 20.379449623791125 0 0 0
1247 416 1 0.5897 -5.433556520022411 -0.7384563235485277 19.588303650978254 0 0 0
1135 379 2 -1.1794 -2.0652325229832798 -0.7255251296850282 17.021953083308404 0 0 0
1285 429 2 -1.1794 -3.764676729375327 0.7662931775772126 21.6245700433697 0 0 0
1010 337 1 0.5897 -10.737496416033029 4.1154297628067305 21.67702171205567 0 -1 0
1045 349 2 -1.1794 -3.3235575194333498 3.4502374909377806 20.88628117914768 0 -1 0
1246 416 2 -1.1794 -6.106842797331282 -1.1588841643632959 20.12319687423446 0 0 0
1136 379 1 0.5897 -1.2395399202798512 -1.1099619021608422 17.316264823317823 0 0 0
1271 424 1 0.5897 -1.4658982950086958 -0.6031215510217933 20.452735779630075 0 0 0
1254 418 1 0.5897 -5.48645094279121 3.0489901860583295 17.542239036560638 0 0 0
1252 418 2 -1.1794 -4.629701310775516 2.622919459918819 17.568067607500133 0 0 0
1204 402 2 -1.1794 -11.615369607848326 0.19268882470957394 18.967617350273386 0 0 0
1233 411 1 0.5897 -1.6755312658614283 2.2088914510358073 17.364627649859905 0 0 0
1249 417 2 -1.1794 -11.264830229399314 0.8623415945401867 21.571918524231187 0 0 0
1218 406 1 0.5897 -13.066553865047961 3.1221357612624487 17.969076461433232 0 0 0
1047 349 1 0.5897 -4.134803673996218 3.820962226236567 20.53899331638322 0 -1 0
1253 418 1 0.5897 -4.001731273828528 3.344705446595846 17.539662072078812 0 0 0
1294 432 2 -1.1794 -1.378325957124046 2.5200401665170116 19.150376478535136 0 0 0
1046 349 1 0.5897 -3.080848078856911 4.034604825275331 21.604422235114768 0 -1 0
1195 399 2 -1.1794 -9.352898015395782 1.915926270787745 16.366105854474824 0 0 0
1137 379 1 0.5897 -2.383394613128388 -1.3268775540173952 16.34870588361884 0 0 0
1101 367 1 0.5897 -10.186881371154673 -1.2592673508574475 16.432051535574956 0 0 0
866 289 1 0.5897 -12.40055817741853 1.7171262533042544 16.385235501809028 0 0 0
40 14 2 -1.1794 -14.876489141867971 3.827872205500073 1.7978546622836082 1 0 0
177 59 1 0.5897 -13.970478559553456 4.331353743701573 3.4129051683645644 1 0 0
42 14 1 0.5897 -15.346052429434039 4.394415890911208 1.1857799173094523 1 0 0
55 19 2 -1.1794 -13.093622468660318 6.165320057403857 0.7533087399286968 1 0 0
56 19 1 0.5897 -12.223831441506118 5.85866992273402 1.0094698562578248 1 0 0
66 22 1 0.5897 -13.34988653605103 2.9533481774110264 1.7164570857988528 1 0 0
65 22 1 0.5897 -11.857310493990537 3.206424897654184 1.7122940944242053 1 0 0
64 22 2 -1.1794 -12.507659931505795 2.5124566653645246 1.604668538100252 1 0 0
191 64 1 0.5897 -12.678332340002559 6.112600962289926 4.169813575359188 1 0 0
212 71 1 0.5897 -6.36345476899562 4.516300185408143 4.612271993825736 1 0 0
183 61 1 0.5897 -12.076919890660005 3.699911851009162 4.583704559933758 1 0 0
181 61 2 -1.1794 -11.2087168875676 3.399204022424211 4.851998213727983 1 0 0
176 59 1 0.5897 -14.273030823996182 4.660162794416383 4.859304634191685 1 0 0
175 59 2 -1.1794 -13.547950887822704 4.504619268058731 4.2540676876513155 1 0 0
108 36 1 0.5897 -9.96852133514112 2.817924583556483 3.6705063706131833 1 0 0
190 64 2 -1.1794 -12.116457002261104 6.883926711760372 4.095824095043863 1 0 0
198 66 1 0.5897 -6.751919978278535 6.756035145373616 1.9605617221771177 1 0 0
85 29 2 -1.1794 -10.833998004938392 4.762777356670485 1.6333133084861144 1 0 0
167 56 1 0.5897 -16.381231424904687 6.229807023911423 3.28446220176829 1 0 0
192 64 1 0.5897 -11.2301703410255 6.529368778091351 4.025030728511883 1 0 0
106 36 2 -1.1794 -9.393642794256374 2.384270263807796 3.039875369997459 1 0 0
86 29 1 0.5897 -10.365768669981234 5.006527714244671 2.4317199070999473 1 0 0
45 15 1 0.5897 -9.673318414713764 2.0911057535523074 1.2970317214428155 1 0 0
160 54 2 -1.1794 -14.93596530488185 7.09828569421628 2.64784677060116 1 0 0
213 71 1 0.5897 -6.196564819237892 4.554693946513369 3.108167005846112 1 0 0
111 37 1 0.5897 -4.496595022451283 3.7323798570535747 4.422494241414643 0 0 0
211 71 2 -1.1794 -5.757649187682793 4.7928166742930856 3.924717137293184 1 0 0
100 34 2 -1.1794 -4.875666509437646 2.499826135075388 1.5452420555385744 1 0 0
204 68 1 0.5897 -9.083448062175442 5.278926892926364 4.483467588127189 1 0 0
76 26 2 -1.1794 -7.265193190097699 3.783232084234088 1.8232585946553053 1 0 0
77 26 1 0.5897 -7.9914375235363835 3.41607112160251 2.3272004980468743 1 0 0
78 26 1 0.5897 -7.685348421290406 4.237754552019341 1.0932096760746126 1 0 0
203 68 1 0.5897 -8.803490556672116 6.174364171923807 3.2954462972006144 1 0 0
202 68 2 -1.1794 -9.517336461195274 5.829720074041573 3.8319592814846306 1 0 0
102 34 1 0.5897 -5.734618193988707 2.9203625687159906 1.5850169144623658 1 0 0
87 29 1 0.5897 -10.176934441519128 4.828170671108261 0.9403401781117218 1 0 0