LAMMPS data file via write_data, version 30 Jul 2021, timestep = 15000000

1296 atoms
2 atom types
864 bonds
1 bond types
432 angles
1 angle types

-10.579145152770355 12.559145152770355 xlo xhi
-9.182198503493508 12.172196503493508 ylo yhi
0.15253853690807695 21.70746046309562 zlo zhi
-9.159641728065518 1.833944205998299 2.8246452201125685 xy xz yz

Masses

1 1.008
2 15.999

Pair Coeffs # lj/cut/tip4p/long/omp

1 0 0
2 0.21084 3.1668

Bond Coeffs # harmonic/omp

1 450 0.9572

Angle Coeffs # harmonic/omp

1 55 104.52

Atoms # full

165 55 1 0.5897 -7.197604114650021 -8.654457592759597 0.15409669497285672 1 1 0
298 100 2 -1.1794 -5.794260376166845 -7.216250166775206 4.06810859252538 1 1 0
280 94 2 -1.1794 -9.574291246674457 -4.488351704757131 1.5459079261345832 1 1 0
299 100 1 0.5897 -6.386152824170214 -7.967877347338721 4.099417458694937 1 1 0
270 90 1 0.5897 -8.466467581286032 -7.496172429357218 1.9362732759124432 1 1 0
163 55 2 -1.1794 -7.0231157135303395 -8.148808787276586 0.9478616259459376 1 1 0
164 55 1 0.5897 -6.192296999976179 -8.494141481545851 1.274672940358414 1 1 0
269 90 1 0.5897 -9.182593920315542 -6.17921466974153 2.1475070640305356 1 1 0
268 90 2 -1.1794 -9.043757845343254 -7.037931454287381 2.546969541296373 1 1 0
282 94 1 0.5897 -10.444167999540046 -4.088844308478028 1.5440603354537095 1 1 0
324 108 1 0.5897 -7.193300849354317 -4.416112363398616 3.4901837048483784 1 1 0
73 25 2 -1.1794 -8.46642758414969 -3.667735014154796 4.603601228239361 1 0 0
314 105 1 0.5897 -8.963800426788183 -6.747824258629925 4.4080473435097955 1 1 0
315 105 1 0.5897 -8.768071461030443 -5.397280872784149 5.063403630222312 1 1 0
259 87 2 -1.1794 -6.555525206468067 -5.3226627703463 0.2204579184294253 1 1 0
323 108 1 0.5897 -6.311486221336209 -5.633900356286359 3.3134124608765436 1 1 0
261 87 1 0.5897 -6.491831990416947 -4.926520758800891 1.089479203833429 1 1 0
275 92 1 0.5897 -10.435752239069897 -7.834137342298202 3.2773887993211273 1 1 0
260 87 1 0.5897 -6.608595485427092 -6.263419819827902 0.3889041524485323 1 1 0
313 105 2 -1.1794 -8.878427381164638 -6.326821392973293 5.263415405428231 1 1 0
281 94 1 0.5897 -8.970052545543988 -3.7481313513593175 1.4890689523212712 1 1 0
322 108 2 -1.1794 -6.4975401879452015 -4.773157586577104 2.9382422698984665 1 1 0
74 25 1 0.5897 -8.220702654298403 -3.182611582825251 5.391298841090647 1 0 0
429 143 1 0.5897 -6.317790635349136 -7.323206521043485 8.589688439404965 1 0 0
428 143 1 0.5897 -6.5177256918907664 -7.2197869259254315 10.086740677384737 1 0 0
427 143 2 -1.1794 -5.886172669858654 -7.031190932813431 9.392601889171084 1 0 0
419 140 1 0.5897 -8.919114878586285 -5.48022121917867 8.736973150329923 1 0 0
418 140 2 -1.1794 -9.62569921508103 -6.020061908567035 9.091366186735893 1 0 0
413 138 1 0.5897 -7.562283340770722 -3.700067940455349 7.856256699009326 1 0 0
631 211 2 -1.1794 -5.625632299098206 -5.562154235836765 6.253414383065866 1 1 0
420 140 1 0.5897 -9.20753598286765 -6.544590115029399 9.77421777196518 1 0 0
618 206 1 0.5897 -7.860633723779538 -7.356093136282016 6.589425819347264 1 1 0
350 117 1 0.5897 -7.145291539305036 -4.35838181074556 9.927855309864542 0 0 0
414 138 1 0.5897 -6.783903065230308 -4.9797131964243935 7.636066744212409 1 0 0
412 138 2 -1.1794 -7.468155421808239 -4.594637118655585 8.18355145862689 1 0 0
627 209 1 0.5897 -10.231014274729201 -6.668392611550992 6.248347919751093 1 1 0
616 206 2 -1.1794 -7.352648261957673 -7.907182710885627 7.18485925239422 1 1 0
349 117 2 -1.1794 -7.04585824513615 -4.074891008525427 10.836670447779083 0 0 0
351 117 1 0.5897 -6.981922703129578 -3.1212463210956756 10.784914915274106 0 0 0
633 211 1 0.5897 -5.854309018058253 -6.194621256467828 5.572326740532567 1 1 0
684 228 1 0.5897 -8.38595083087344 -6.496890360923359 14.431702726525511 0 0 0
740 247 1 0.5897 -10.623367669207244 -3.4013952090433293 11.999844709543845 1 0 0
652 218 2 -1.1794 -5.556423130289329 -5.51132428029046 12.646035767922823 0 0 0
682 228 2 -1.1794 -7.733933644198188 -6.90449753615415 13.861660841964703 0 0 0
780 260 1 0.5897 -7.7343555523683705 -3.779546124684691 15.49963721891992 0 0 0
779 260 1 0.5897 -7.2133830011395705 -2.9927310281035187 14.315802324050757 0 0 0
778 260 2 -1.1794 -8.014552653771132 -3.3665050175630133 14.682839294422472 0 0 0
768 256 1 0.5897 -9.60424442434847 -2.5867750538675356 14.727782772909247 0 0 0
654 218 1 0.5897 -6.0448230024510075 -4.965289027908635 12.02991940250411 0 0 0
653 218 1 0.5897 -6.224505376037234 -6.0473424109233544 13.07339144996385 0 0 0
661 221 2 -1.1794 -9.325292927356525 -4.682595075994101 12.407148143030279 0 0 0
766 256 2 -1.1794 -10.45944337539224 -2.1665889121920046 14.81922909251962 0 0 0
662 221 1 0.5897 -8.948506875412177 -4.500792493182375 13.268088544800035 0 0 0
663 221 1 0.5897 -8.595058163282179 -4.573981747865859 11.79786556878466 0 0 0
729 243 1 0.5897 -8.052716656842911 -7.307221728547631 12.054284986768831 1 0 0
788 263 1 0.5897 -4.891091313832533 -4.62776642711472 15.554072859056 0 0 0
767 256 1 0.5897 -11.089509976446669 -2.8800538444198844 14.718013379105287 0 0 0
727 243 2 -1.1794 -7.997832084282223 -7.553353368085633 11.130922553718879 1 0 0
739 247 2 -1.1794 -11.348923431543884 -2.9291510116991546 11.591367221039944 1 0 0
757 253 2 -1.1794 -9.80738649488799 -5.845376795042642 15.371347279812698 0 0 0
758 253 1 0.5897 -9.455138311646921 -5.2481494309785575 16.031229386979227 0 0 0
1221 407 1 0.5897 -10.879242316032684 -2.019843263870154 19.32078733038503 0 0 0
1121 374 1 0.5897 -4.938120977612172 -3.2141942359297246 18.591207355996822 0 0 0
1088 363 1 0.5897 -6.3577542897094546 -5.803918297077488 16.61561421143572 0 0 0
1131 377 1 0.5897 -6.972973280053827 -1.6823465826535893 17.2762762524156 0 0 0
1152 384 1 0.5897 -6.983616903009019 -3.8715196512744168 19.652873407125064 0 0 0
1225 409 2 -1.1794 -8.315188653719693 -3.397422044748902 20.757292012346305 0 0 0
1227 409 1 0.5897 -9.141216650294103 -3.0093978789684455 20.46847484042987 0 0 0
1109 370 1 0.5897 -8.65341559863332 -3.2617458519579774 17.754635161146503 0 0 0
1108 370 2 -1.1794 -9.222857975887756 -4.021059826607474 17.63041512352239 0 0 0
1089 363 1 0.5897 -6.467678290877517 -4.518470868430769 17.407618840222362 0 0 0
1248 416 1 0.5897 -5.7112608924578865 -1.4530474091151824 20.613072704046253 0 0 0
1110 370 1 0.5897 -10.109987504735647 -3.6734038402795868 17.722194352654768 0 0 0
1097 366 1 0.5897 -8.845078572278606 -5.681026234008798 18.3733955916885 0 0 0
1151 384 1 0.5897 -5.987660574002097 -5.007145236479385 19.55114692379508 0 0 0
1150 384 2 -1.1794 -6.265792869395628 -4.202727002769354 19.113184770567898 0 0 0
1219 407 2 -1.1794 -10.446782154151435 -1.7344714479299785 20.125632965602158 0 0 0
1129 377 2 -1.1794 -7.714260951212063 -1.6226992563429743 17.878921269302936 0 0 0
1143 381 1 0.5897 -8.41188592029943 -5.111403960830804 21.350556862038495 0 0 0
1130 377 1 0.5897 -7.314036838219672 -1.511384597943282 18.741289277982048 0 0 0
1087 363 2 -1.1794 -6.427682405527502 -4.854881708050479 16.512401037526118 0 0 0
1226 409 1 0.5897 -8.053274877282758 -2.870229466533047 21.512054200291466 0 0 0
1142 381 1 0.5897 -8.674279984514193 -6.372925469464818 20.555897392538213 0 0 0
1141 381 2 -1.1794 -8.514128917969575 -6.058361151549386 21.445618397607745 0 0 0
1096 366 2 -1.1794 -8.795867876066264 -6.543307754247294 18.786060846593436 0 0 0
97 33 2 -1.1794 -11.856595227171564 0.5387424212462104 5.230196226639747 1 0 0
69 23 1 0.5897 -11.058101492892922 -2.6634433364014205 3.103487797900307 1 0 0
272 91 1 0.5897 -9.466636041553413 -0.8194381299381615 1.309124319924164 1 1 0
271 91 2 -1.1794 -10.302795288700372 -0.5854812875662567 0.9061014383600668 1 1 0
301 101 2 -1.1794 -7.976727414088623 -1.8578342005476198 1.6291321043103208 1 1 0
107 36 1 0.5897 -9.348920345784244 1.5698146540924434 3.1542022966670293 1 0 0
258 86 1 0.5897 -12.30522976731638 -2.5194838377533824 1.2472094888542813 1 1 0
83 28 1 0.5897 -9.556312046309431 -0.7287356539635859 3.9626627786633306 1 0 0
67 23 2 -1.1794 -10.57602996045029 -2.2667018213635766 3.829050782080049 1 0 0
59 20 1 0.5897 -13.63162988631775 -0.861700047346341 3.245748914139605 1 0 0
68 23 1 0.5897 -11.07417571823397 -2.509723341952834 4.609460216600093 1 0 0
52 18 2 -1.1794 -12.395044260139118 0.1796644256144848 2.4646715968609985 1 0 0
98 33 1 0.5897 -11.913297742717175 0.14504432790547916 4.35958206801575 1 0 0
53 18 1 0.5897 -12.536558874236329 1.061660009955892 2.1207318354247153 1 0 0
54 18 1 0.5897 -11.762358614261117 -0.21362478066657253 1.8636347447772437 1 0 0
82 28 2 -1.1794 -8.956182595234552 0.012941020974057693 4.04025822537597 1 0 0
44 15 1 0.5897 -10.018384228706775 1.0302688211066648 0.22765854770349378 1 0 0
84 28 1 0.5897 -8.087436018378654 -0.3856409436711772 4.092366623640034 1 0 0
99 33 1 0.5897 -11.951605398498195 1.4785145662439305 5.075209338072056 1 0 0
256 86 2 -1.1794 -12.074880997721998 -3.2328051891882676 1.8425060946562901 1 1 0
75 25 1 0.5897 -9.16015805623062 -3.1423982834527164 4.204777491699003 1 0 0
417 139 1 0.5897 -8.73808196019839 1.05968864403002 5.446899710434629 1 0 0
527 176 1 0.5897 -11.88287166702295 1.6036277663511207 8.78333397583918 1 0 0
526 176 2 -1.1794 -12.750213606446131 1.3795390286245492 9.12068204026616 1 0 0
426 142 1 0.5897 -8.887017083236184 -1.7171810089737498 7.036548226646387 1 0 0
435 145 1 0.5897 -7.4821605073295 -0.9524221268884432 9.89551251709296 0 0 0
424 142 2 -1.1794 -8.052585739141827 -2.1840813076628507 7.081322886159442 1 0 0
402 134 1 0.5897 -10.734036272367586 -0.12641292499875512 6.521229721767397 1 0 0
401 134 1 0.5897 -11.111870621243137 -1.1774881871392555 7.5432097219027785 1 0 0
400 134 2 -1.1794 -10.355636480612162 -0.7625394363818092 7.128218322438758 1 0 0
537 179 1 0.5897 -9.33889052027849 -0.07900488671187844 8.542593531907546 1 0 0
536 179 1 0.5897 -9.821193412570153 0.009997839750891302 9.974825777662703 1 0 0
535 179 2 -1.1794 -9.033328036979572 0.07982038993770146 9.43569814800077 1 0 0
528 176 1 0.5897 -12.579773944978868 0.7512617635708452 9.822454191613296 1 0 0
411 137 1 0.5897 -13.370611177390748 0.40724782939571647 6.1813507592912575 1 0 0
522 174 1 0.5897 -9.881179453035186 1.9510950849283457 7.429183891777459 1 0 0
410 137 1 0.5897 -13.488288255319421 0.6997955548019767 7.662014379644277 1 0 0
520 174 2 -1.1794 -10.508504368421654 2.426777551723239 7.973610905643945 1 0 0
425 142 1 0.5897 -7.389322633290141 -1.4958625485046673 7.029251880029471 1 0 0
790 264 2 -1.1794 -10.978042574959824 0.2265903729881753 13.773124047932951 0 0 0
770 257 1 0.5897 -12.120814756401526 2.791860494289292 13.115965036607344 0 0 0
762 254 1 0.5897 -9.051106483587219 2.251619521649701 11.98846694991082 0 0 0
761 254 1 0.5897 -9.534947300132322 1.2523430136811324 13.017690593255022 0 0 0
760 254 2 -1.1794 -8.739435287873372 1.6537562103321868 12.667948630602483 0 0 0
896 299 1 0.5897 -7.947002826000499 2.5613712860336175 15.557930578315757 0 0 0
792 264 1 0.5897 -11.61496690229316 0.6260538277726777 14.365552168692524 0 0 0
888 296 1 0.5897 -10.517284570736678 3.1932202146653133 15.200028897811121 0 0 0
837 279 1 0.5897 -11.090527840232948 0.00419138349283088 11.893980111522199 1 0 0
791 264 1 0.5897 -10.842760862590055 -0.6535341645031973 14.12429715703823 0 0 0
835 279 2 -1.1794 -11.234654008135335 -0.268090972607391 10.987727723963516 1 0 0
769 257 2 -1.1794 -12.383827845006756 2.7102222687764126 12.199235545935418 0 0 0
836 279 1 0.5897 -11.288629239056108 -1.2228319324989627 11.02973554785702 1 0 0
1101 367 1 0.5897 -10.249248264427735 -0.9382450312822126 16.18885851179251 0 0 0
771 257 1 0.5897 -11.573345077527472 2.8338563822667506 11.705158059223171 0 0 0
786 262 1 0.5897 -7.295835578138814 0.6645606339047081 12.481062294509183 0 0 0
866 289 1 0.5897 -12.592767875935714 1.7351810057503538 16.150625518921046 0 0 0
1009 337 2 -1.1794 -11.003008590087603 3.8858947880393995 20.90213872363882 0 -1 0
1260 420 1 0.5897 -9.685523636999385 3.162669483573813 19.666443549696588 0 0 0
1205 402 1 0.5897 -12.23635720050184 1.3871466725993056 18.206290128872894 0 0 0
1259 420 1 0.5897 -8.896087179486665 1.8793402147115206 19.519103492376843 0 0 0
1258 420 2 -1.1794 -9.037776099534875 2.7322634149440734 19.108422547517407 0 0 0
1196 399 1 0.5897 -9.679193060911466 1.4249972560322952 16.387376857935102 0 0 0
1246 416 2 -1.1794 -6.2724212645582025 -0.9604325010896044 20.014137924915353 0 0 0
1195 399 2 -1.1794 -9.533485996102087 2.369438690457832 16.442219374780578 0 0 0
1236 412 1 0.5897 -7.9203760953885585 -0.16234005393323692 20.26626088348823 0 0 0
1216 406 2 -1.1794 -12.548637292403974 2.9849249614742224 17.60299482052519 0 0 0
1235 412 1 0.5897 -9.41993282713764 -0.3006507370851139 20.422200650563255 0 0 0
1234 412 2 -1.1794 -8.711128790190584 0.3416576655459931 20.458505097264265 0 0 0
1099 367 2 -1.1794 -9.971582219418734 -0.3060552281847819 16.85174784687137 0 0 0
1204 402 2 -1.1794 -12.116070984043086 0.5138549718582741 18.579295225495066 0 0 0
1206 402 1 0.5897 -11.345533730855937 0.16541410976714133 18.130849516702405 0 0 0
1250 417 1 0.5897 -11.811252468484458 0.8632408183660214 20.34227637435542 0 0 0
1197 399 1 0.5897 -9.433961345808386 2.5429122628309653 17.37828158694549 0 0 0
1100 367 1 0.5897 -9.142940082299424 -0.6530987582914491 17.182247777477116 0 0 0
1218 406 1 0.5897 -13.312894903506935 3.5554921999805895 17.684375168675096 0 0 0
1251 417 1 0.5897 -11.37690474798591 2.0316312165466197 21.201344955341092 0 0 0
273 91 1 0.5897 -8.534112562438139 1.668683826617185 21.69521095079311 1 1 -1
1217 406 1 0.5897 -11.799180389129397 3.5712020835366722 17.707258882516612 0 0 0
1249 417 2 -1.1794 -11.61139874655722 1.1047121847762007 21.246687483292618 0 0 0
40 14 2 -1.1794 -15.230731077325846 4.107683290792913 1.7620095530059545 1 0 0
177 59 1 0.5897 -14.283973369411918 4.729807186101652 3.203218685697954 1 0 0
42 14 1 0.5897 -15.604824163237641 4.631928071294862 1.0538428933606596 1 0 0
108 36 1 0.5897 -10.206207028943894 2.768686511003658 3.500060788952066 1 0 0
175 59 2 -1.1794 -13.782440352093126 4.8883884914032585 4.002952945273844 1 0 0
55 19 2 -1.1794 -13.286895645587784 6.339212565586541 1.0996733743541287 1 0 0
56 19 1 0.5897 -12.438111653652648 5.9752697822611065 1.351524525409758 1 0 0
66 22 1 0.5897 -13.568976915239784 3.186402870891719 1.5492878750059738 1 0 0
65 22 1 0.5897 -12.070062966986173 3.3773227155019256 1.6437745688812098 1 0 0
64 22 2 -1.1794 -12.740543241772773 2.7093108602833986 1.5006689099433193 1 0 0
182 61 1 0.5897 -11.409219623407147 3.796427196697916 5.523289235975784 1 0 0
190 64 2 -1.1794 -12.118126690873153 7.019192641148793 4.060926496161377 1 0 0
191 64 1 0.5897 -12.756557303804602 6.306201363556603 4.0431893707882605 1 0 0
192 64 1 0.5897 -11.279744031881616 6.595338156513133 3.8772446260795084 1 0 0
183 61 1 0.5897 -12.36942765184025 3.6496340027750733 4.362052250588783 1 0 0
181 61 2 -1.1794 -11.566846759086346 3.281645999338643 4.731873330501367 1 0 0
176 59 1 0.5897 -14.396044946798105 4.698397268369359 4.712628093682508 1 0 0
85 29 2 -1.1794 -10.939750817729788 4.996952534531852 1.3572929527710096 1 0 0
45 15 1 0.5897 -9.70623434118383 2.2191802579045685 1.111290871276799 1 0 0
162 54 1 0.5897 -14.831085582202373 6.900116786837264 2.134572504331201 1 0 0
43 15 2 -1.1794 -9.805639111654594 1.9629198176575056 0.1944201862809289 1 0 0
106 36 2 -1.1794 -9.557167543246031 2.4592479601883035 2.8682307949782277 1 0 0
57 19 1 0.5897 -13.58752838088007 5.775938518114716 0.3865524440968058 1 0 0
508 170 2 -1.1794 -13.417738806777056 6.1799089739547775 7.246333799434779 1 0 0
645 215 1 0.5897 -12.312632508470184 6.989242680412497 8.505147767956764 1 0 0
644 215 1 0.5897 -12.460033091603448 6.8632329907756375 10.00656602025071 1 0 0
643 215 2 -1.1794 -11.873006629428005 7.199020244588636 9.32913962836888 1 0 0
509 170 1 0.5897 -14.177661323468197 5.932076701109105 7.772994345317991 1 0 0
636 212 1 0.5897 -15.111411689177576 7.601592526147696 9.811372243750556 1 0 0
532 178 2 -1.1794 -11.103942268788334 4.865914619492692 6.945074145448433 1 0 0
459 153 1 0.5897 -9.91578978146674 4.180218602091662 10.63592968820367 0 0 0
510 170 1 0.5897 -13.785754526766304 6.66353628421661 6.506774749171431 1 0 0
534 178 1 0.5897 -11.960297460288416 5.2847549337269 7.03175195144399 1 0 0
521 174 1 0.5897 -10.680620835035633 3.2352187790325164 7.490855450266065 1 0 0
543 181 1 0.5897 -10.375341042925958 6.164752700977813 9.544147265315061 0 0 0
458 153 1 0.5897 -10.28413054662332 2.9747717748242426 9.797484308286643 0 0 0
533 178 1 0.5897 -10.476250661212115 5.5842040353140305 7.0245944081289355 1 0 0
457 153 2 -1.1794 -10.096965688172 3.242334121486799 10.697253865919263 0 0 0
518 173 1 0.5897 -16.52438045025381 7.649544438941605 7.625191167982325 1 0 0
887 296 1 0.5897 -10.277584230371108 4.132690122824561 14.037325795118011 0 0 0
874 292 2 -1.1794 -13.322931562045152 4.759337477899887 15.003988602788052 0 0 0
876 292 1 0.5897 -12.48829590706526 4.3195282665938475 14.842052971358488 0 0 0
848 283 1 0.5897 -13.853178052616327 3.6883394988681797 11.874782379354137 1 0 0
945 315 1 0.5897 -14.0395645054823 6.967756161505461 11.938135159600153 1 0 0
875 292 1 0.5897 -13.97688438904294 4.062915366972048 14.943938634001805 0 0 0
900 300 1 0.5897 -14.489935348217898 7.537184177912087 14.275504126923105 0 0 0
899 300 1 0.5897 -13.545689708327153 6.374306879201901 14.056425891333227 0 0 0
898 300 2 -1.1794 -13.746327747359285 7.25598561967311 13.742385862186792 0 0 0
943 315 2 -1.1794 -13.992354783473662 6.620608113995457 11.04737985777479 1 0 0
886 296 2 -1.1794 -10.95035920339241 3.5846258854551802 14.441390055811814 0 0 0
869 290 1 0.5897 -12.47796052348927 8.381224257522627 13.213213367286441 0 0 0
944 315 1 0.5897 -14.170940720326275 5.6852613839893635 11.14460237889165 1 0 0
1018 340 2 -1.1794 -11.870378341335217 7.37683796360478 20.546361544007127 0 -1 0
1019 340 1 0.5897 -12.413569094339929 6.589929562902322 20.59072276107434 0 -1 0
1020 340 1 0.5897 -10.987483377016183 7.049672040257915 20.373888064204586 0 -1 0
1003 335 2 -1.1794 -13.390814723339954 5.143488822988871 20.538557724715375 0 -1 0
1237 413 2 -1.1794 -10.64947437427112 5.085682768583483 17.87186219857002 0 0 0
1034 345 1 0.5897 -14.912404708015803 7.964055510853322 20.616492703323843 0 -1 0
1030 344 2 -1.1794 -9.497664493438588 6.403019777250526 19.945235052746334 0 -1 0
1032 344 1 0.5897 -9.141281964322243 5.897052207340957 20.675487004562477 0 -1 0
980 327 1 0.5897 -12.760540642721898 8.258107586882469 16.537352379239024 0 -1 0
1207 403 2 -1.1794 -12.9858548875007 6.551422429876036 17.067811913434184 0 0 0
1208 403 1 0.5897 -12.17559844288352 6.206804137750543 17.443368568727124 0 0 0
1239 413 1 0.5897 -9.95282337057687 5.3081437967587455 17.254240525503917 0 0 0
1238 413 1 0.5897 -10.416903944005385 5.552788102231164 18.674308427243183 0 0 0
990 330 1 0.5897 -14.381767493181187 7.146847790833506 18.184520574958484 0 -1 0
1043 348 1 0.5897 -12.231349278273422 8.888060210922548 19.697258525537237 0 -1 0
989 330 1 0.5897 -15.174814210373455 8.412452648083027 18.43180196076586 0 -1 0
1011 337 1 0.5897 -11.878900457268777 4.210855418909643 20.693502471281086 0 -1 0
1035 345 1 0.5897 -14.853264264868562 9.264512341036072 21.389185719421413 0 -1 0
988 330 2 -1.1794 -14.980474290670639 7.5548903510692345 18.810025817580417 0 -1 0
1209 403 1 0.5897 -13.275158313989351 5.873021163007424 16.457673147281476 0 0 0
1010 337 1 0.5897 -10.726885356290557 4.407077976253117 21.656010615862947 0 -1 0
1005 335 1 0.5897 -13.750645538727042 5.002992738922664 19.66275804507336 0 -1 0
291 97 1 0.5897 -15.07332781939674 10.902123137120137 4.560043978711206 1 0 0
174 58 1 0.5897 -16.55640820289333 10.254102520331111 1.6118822273655227 1 0 0
173 58 1 0.5897 -15.082612503833424 10.539957878897207 1.4161221448696324 1 0 0
172 58 2 -1.1794 -15.704595526280606 9.823175307196328 1.5411288018835427 1 0 0
283 95 2 -1.1794 -16.530267493198448 11.850717251685412 4.233167099215816 1 0 0
161 54 1 0.5897 -15.550252935217443 8.210448459135401 2.374725065828319 1 0 0
207 69 1 0.5897 -14.62201061424103 8.734287060124581 5.261418982204312 1 0 0
193 65 2 -1.1794 -13.851967034411992 11.942549226222178 1.6354792683377746 1 0 0
285 95 1 0.5897 -16.994204885765264 11.733959203138857 3.4040787651122058 1 0 0
148 50 2 -1.1794 -18.058744607805757 11.118186332390417 2.0073831875692756 1 0 0
289 97 2 -1.1794 -14.276230261247816 10.508020169539614 4.914494671350194 1 0 0
150 50 1 0.5897 -18.4712492698816 11.6830726120927 1.353911097649626 1 0 0
284 95 1 0.5897 -17.222575031547827 11.879020053811574 4.8935869862861985 1 0 0
206 69 1 0.5897 -14.960230645510144 7.489539914287059 4.468964742265554 1 0 0
216 72 1 0.5897 -13.118151241962298 10.024948705451054 3.7035550085334017 1 0 0
214 72 2 -1.1794 -12.605116359010765 9.558026548992496 3.0440330973536787 1 0 0
152 51 1 0.5897 -12.951538267675026 7.900912040332988 0.5114560756177002 1 0 0
205 69 2 -1.1794 -14.81428136785031 7.801998816960973 5.361861979519145 1 0 0
215 72 1 0.5897 -12.554792181771752 8.65975763731271 3.37086397405743 1 0 0
153 51 1 0.5897 -12.719768099859927 9.1768133562262 1.2925597985354107 1 0 0
151 51 2 -1.1794 -12.823684896050835 8.843130137710796 0.4014634797722234 1 0 0
525 175 1 0.5897 -11.73374316268113 8.023398603891119 5.517616769015663 1 0 0
160 54 2 -1.1794 -15.533595532690835 7.294316558755623 2.6515987188308587 1 0 0
640 214 2 -1.1794 -14.146284097199626 12.164761419616296 7.164081759411062 1 0 0
630 210 1 0.5897 -12.792115776133809 9.380647387602506 7.3317360587931155 1 0 0
629 210 1 0.5897 -13.615818246547239 10.565015610092361 7.7906616399526705 1 0 0
628 210 2 -1.1794 -13.41375862886505 9.654525703780385 8.006090897870667 1 0 0
566 189 1 0.5897 -13.108887214116667 9.912525751798784 9.928750805037978 0 0 0
635 212 1 0.5897 -14.862092490810564 8.548272620988522 8.656559382887517 1 0 0
634 212 2 -1.1794 -15.55695358903576 8.06150755562305 9.099855574907016 1 0 0
642 214 1 0.5897 -15.02836498073193 12.535246883117408 7.13286981777172 1 0 0
325 109 2 -1.1794 -12.941167861072067 12.969814608166141 10.350409734850903 0 -1 0
617 206 1 0.5897 -17.166559478562473 12.909846712561327 7.631456018081012 1 0 0
567 189 1 0.5897 -13.12059059325628 11.151045314527542 10.799192200721537 0 0 0
565 189 2 -1.1794 -13.185263114630581 10.196894439380378 10.839514357646939 0 0 0
641 214 1 0.5897 -13.565253815279494 12.924140026502544 7.119253910394839 1 0 0
327 109 1 0.5897 -13.758246991260032 13.406070506345918 10.108808090457524 0 -1 0
519 173 1 0.5897 -16.570740870540877 7.618157100464758 6.11233525027118 1 0 0
290 97 1 0.5897 -14.079987464943986 11.024755139088713 5.695944473404253 1 0 0
658 220 2 -1.1794 -16.63767878721549 11.855180049859667 14.917818674161804 0 -1 0
870 290 1 0.5897 -12.238346808565625 9.328152698836357 12.05655694174794 0 0 0
683 228 1 0.5897 -16.84920659910012 13.541206651941936 14.159231795976089 0 -1 0
671 224 1 0.5897 -13.377887612572204 11.174447407215586 14.301327831726073 0 -1 0
670 224 2 -1.1794 -14.099408271134424 10.6436774586855 14.638935703498833 0 -1 0
672 224 1 0.5897 -13.695829232270937 10.084659721115232 15.302943159426984 0 -1 0
956 319 1 0.5897 -17.02860483280918 10.717916496394311 12.101110034467647 1 0 0
660 220 1 0.5897 -15.816061704631846 11.389810971611551 14.760811611556303 0 -1 0
879 293 1 0.5897 -14.771256721331635 9.94049927904386 11.775047973005556 0 0 0
878 293 1 0.5897 -15.005352981156332 9.91611690137483 13.270528370420719 0 0 0
877 293 2 -1.1794 -15.452813045755798 9.800101019715713 12.432332536092485 0 0 0
728 243 1 0.5897 -17.37963101126261 12.870091400959554 11.11714209845067 1 -1 0
680 227 1 0.5897 -10.970129261717043 9.64428763458166 15.552218340392118 0 -1 0
664 222 2 -1.1794 -11.991040335537164 11.963783852132488 13.550578533963423 0 -1 0
868 290 2 -1.1794 -11.782189080815504 8.838811599538728 12.741203847384256 0 0 0
681 227 1 0.5897 -10.665507960898994 9.115133576447265 14.16694960203095 0 -1 0
650 217 1 0.5897 -15.872007360366002 8.928385398799842 16.007657737328806 0 -1 0
1140 380 1 0.5897 -12.097881932796998 12.500410700673553 20.653066327647927 0 -1 0
1138 380 2 -1.1794 -12.494761165372452 13.06806527674164 19.992358534073446 0 -1 0
1128 376 1 0.5897 -13.8501520897054 14.075465213652409 20.083463329375604 0 -1 0
1127 376 1 0.5897 -15.356591229050714 13.926762879546322 20.10911313352961 0 -1 0
1022 341 1 0.5897 -13.556137338366549 12.517537113195493 18.602906162696286 0 -1 0
1119 373 1 0.5897 -15.133328561984897 11.350141418298273 20.58906128282326 0 -1 0
1117 373 2 -1.1794 -14.42719851343358 10.854660821928166 21.004011981144913 0 -1 0
1044 348 1 0.5897 -13.1168906503269 10.105556180824282 19.856531409853496 0 -1 0
1042 348 2 -1.1794 -12.50319860233819 9.689966101998147 19.25083576256811 0 -1 0
1111 371 2 -1.1794 -16.504318168608037 12.447060918376364 20.08851187539436 0 -1 0
1126 376 2 -1.1794 -14.65832625005289 14.575425066606302 20.198215543176403 0 -1 0
1013 338 1 0.5897 -10.879010799230993 10.626577706118033 18.6459046429946 0 -1 0
991 331 2 -1.1794 -16.056834133677746 13.796996061347498 17.000012434453488 0 -1 0
992 331 1 0.5897 -15.285733923579286 13.340430722989323 17.336557766342793 0 -1 0
981 327 1 0.5897 -12.818707857938476 9.45044547306321 17.468298713938474 0 -1 0
1023 341 1 0.5897 -13.165900101288727 12.36841563083762 17.147811676144144 0 -1 0
1021 341 2 -1.1794 -13.898449228436291 12.245193316072543 17.751507408837448 0 -1 0
1001 334 1 0.5897 -14.997647854708791 10.753694372073708 17.591693234797887 0 -1 0
1000 334 2 -1.1794 -15.564323854210524 9.996492965058964 17.44412888876684 0 -1 0
1002 334 1 0.5897 -16.453249730365073 10.344657793973917 17.514023747856307 0 -1 0
1098 366 1 0.5897 -17.41327276289816 14.291597044460529 18.19251275513411 0 -1 0
1118 373 1 0.5897 -14.104111377170991 11.43122203568169 21.696394026272536 0 -1 0
979 327 2 -1.1794 -12.695177123129593 9.212982325034302 16.549313094519547 0 -1 0
993 331 1 0.5897 -16.45110277913362 13.179964967867607 16.383544260123855 0 -1 0
1113 371 1 0.5897 -16.982308701185808 12.128351725083425 19.322878205687573 0 -1 0
305 102 1 0.5897 -1.4195984350329098 -6.068987729615637 2.4620786571780497 1 1 0
311 104 1 0.5897 -2.582786276385219 -8.040068362845565 3.371424041315295 1 1 0
318 106 1 0.5897 -2.733580634032249 -4.1169225147182456 1.7827671281027146 1 1 0
300 100 1 0.5897 -4.917632018549285 -7.600711204258269 4.071900559610107 1 1 0
243 81 1 0.5897 -0.6859645486928176 -5.559251425485217 5.444916990734128 0 1 0
304 102 2 -1.1794 -1.2866400607528217 -6.980719481325729 2.72150117612017 1 1 0
316 106 2 -1.1794 -1.8385821609924164 -4.456007951509413 1.8002651978456714 1 1 0
242 81 1 0.5897 -0.9788365830498869 -6.772334237693274 4.5879310347239075 0 1 0
306 102 1 0.5897 -0.6381333725494152 -7.314459563245179 2.101602074409614 1 1 0
293 98 1 0.5897 -5.1194306099825955 -3.877048686847103 2.2641048361235168 1 1 0
310 104 2 -1.1794 -3.2411002371916924 -8.462083674411012 3.923501700133547 1 1 0
3 1 1 0.5897 -1.2862055019746474 -3.43307761424406 4.449817320311873 0 0 0
317 106 1 0.5897 -1.2855611272025644 -3.677139929909628 1.7387495489893459 1 1 0
201 67 1 0.5897 0.31922166689613185 -8.55817699421843 0.16219958901642037 1 1 0
199 67 2 -1.1794 0.5631017191577552 -7.983752478478227 0.8879764914495886 1 1 0
241 81 2 -1.1794 -0.803364830036438 -6.5080951280372865 5.491033259798718 0 1 0
632 211 1 0.5897 -4.857229675341124 -5.938723858306549 6.682446863120256 1 1 0
555 185 1 0.5897 -2.526897823267239 -6.647243918443954 6.323886496189437 0 1 0
554 185 1 0.5897 -2.8251556169398864 -6.76288009066403 7.803595894784371 0 1 0
553 185 2 -1.1794 -3.2117003786460234 -6.9075921686273425 6.9399481208951235 0 1 0
546 182 1 0.5897 0.16889975252913736 -7.351380474041939 6.815739786207172 0 1 0
356 119 1 0.5897 1.0749574015555936 -7.103995029677584 10.388674027744113 0 0 0
359 120 1 0.5897 -4.533212221676261 -3.239693352545439 8.829110547205211 0 0 0
348 116 1 0.5897 -1.2953072477195366 -6.558893934999954 9.840547241887306 0 0 0
347 116 1 0.5897 -1.0916963652251201 -5.516049037010745 8.762134170178058 0 0 0
346 116 2 -1.1794 -1.763114253108066 -6.065232669437101 9.166948424354143 0 0 0
336 112 1 0.5897 -3.407232514320161 -5.1719601848501595 9.5228645883585 0 0 0
334 112 2 -1.1794 -4.272407889854313 -4.764590247688533 9.565469242053979 0 0 0
544 182 2 -1.1794 0.42010855486926246 -7.901529065214602 7.557698298405628 0 1 0
404 135 1 0.5897 -5.228016809708636 -3.9257953855224645 5.797689752906972 1 0 0
335 112 1 0.5897 -4.876252223733731 -5.496309462384101 9.692845239505937 0 0 0
357 119 1 0.5897 1.3595397697656892 -7.253236640661141 8.909299602622971 0 0 0
787 263 2 -1.1794 -4.202801752890817 -4.6017559948406905 14.88938216046453 0 0 0
793 265 2 -1.1794 -1.9688841705363682 -6.053486693083368 15.655233899027978 0 0 0
795 265 1 0.5897 -2.676413370693182 -5.551738031480274 15.250319212682747 0 0 0
803 268 1 0.5897 -3.1262192028960394 -3.265671803367751 14.881446915774696 0 0 0
689 230 1 0.5897 1.3988429145270302 -6.074826051491749 13.058377082842792 0 0 0
774 258 1 0.5897 -5.1634854476727945 -2.4502543558971235 12.895431511252664 0 0 0
718 240 2 -1.1794 0.053832022366488985 -7.025334823797401 14.010316429349041 0 0 0
699 233 1 0.5897 -0.8407771433524438 -4.39975088715101 11.925012430546225 0 0 0
697 233 2 -1.1794 -1.4683425038763254 -4.430038671458055 12.647152602143004 0 0 0
677 226 1 0.5897 -2.5758567565452264 -5.98106079954071 12.478598564710435 0 0 0
676 226 2 -1.1794 -3.1711987668482866 -6.728597227765881 12.42367002998969 0 0 0
698 233 1 0.5897 -0.9629296729592713 -4.164708374076005 13.415534023016413 0 0 0
668 223 1 0.5897 -3.1098775051813785 -3.4866515276890375 12.052148927289503 0 0 0
667 223 2 -1.1794 -3.867047295909649 -3.022760649376491 11.69465910174643 0 0 0
657 219 1 0.5897 -0.429900324420494 -7.2197592238580155 12.330785831652902 0 0 0
720 240 1 0.5897 -0.6260267540598274 -6.6196370180617485 14.54829497326004 0 0 0