LAMMPS data file via write_data, version 30 Jul 2021, timestep = 6750000

864 atoms
2 atom types
576 bonds
1 bond types
288 angles
1 angle types

0.6088737037442709 17.598698696249578 xlo xhi
1.8087040673927124 21.820473732609358 ylo yhi
0.7428244964034558 21.470371303590685 zlo zhi

Masses

1 1.00794
2 15.9994

Pair Coeffs # lj/cut/tip4p/long/omp

1 0 0
2 0.21084 3.1668

Bond Coeffs # harmonic/omp

1 450 0.9572

Angle Coeffs # harmonic/omp

1 55 104.52

Atoms # full

175 1 2 -1.1794 1.7129988779837986 2.6424757477923264 2.844241908226093 0 -2 8
193 1 2 -1.1794 3.8938969723399595 4.485035179194272 3.0624888264284165 2 -2 3
545 1 1 0.5897 3.2258533109007757 6.077129238185746 5.844250140372205 -3 2 6
194 1 1 0.5897 3.7026292480332224 5.188255844319269 2.441768282572775 2 -2 3
177 1 1 0.5897 0.9747920503177402 2.5629159783218594 3.448485632681209 0 -2 8
546 1 1 0.5897 3.8779994164795326 5.167553740225782 4.8246170347646755 -3 2 6
195 1 1 0.5897 3.1588512407360048 3.878464719948877 2.971964317980143 2 -2 3
176 1 1 0.5897 1.6553084344813078 1.8634264512790606 2.290941909057059 0 -2 8
544 1 2 -1.1794 4.078813443591778 5.75266393081931 5.555164656674878 -3 2 6
131 1 1 0.5897 2.066743741027209 6.470315369083552 1.921747235758173 -5 0 0
596 1 1 0.5897 0.647864331703344 3.855757777726018 1.6998437548959058 0 -3 2
231 1 1 0.5897 3.460528055553706 1.8599739536718047 5.791269726767507 5 4 3
502 1 2 -1.1794 3.25121308963119 5.694481884810163 0.9050913677581237 -4 2 1
597 1 1 0.5897 0.7138310827324261 5.2037971567021835 2.3859366330804246 -1 -3 2
42 1 1 0.5897 2.3899893895863173 2.382809203556971 9.143974680457061 -2 0 3
542 1 1 0.5897 2.1273691620016226 3.6632885456463002 6.622169612687809 -6 0 3
797 1 1 0.5897 4.2848995977632365 3.538264637090609 9.777770664215538 -1 -6 -3
654 1 1 0.5897 0.7100737569633011 3.7475799069935474 9.72826906888594 1 2 2
543 1 1 0.5897 1.376187954258791 4.843891631824042 7.2002578408869855 -6 0 3
112 1 2 -1.1794 1.39451000325709 6.52088385578055 8.514129255674701 -3 -2 2
483 1 1 0.5897 4.224097146020336 2.0655929990300734 7.458113891952727 2 3 1
40 1 2 -1.1794 2.5995514901283068 3.0373574902685903 9.810338799245942 -2 0 3
541 1 2 -1.1794 1.301392121394233 4.1422600557714 6.553343357534055 -6 0 3
41 1 1 0.5897 2.378507186843546 2.6143499269969785 10.640146944272162 -2 0 3
113 1 1 0.5897 0.9511060048897969 5.789772786973243 8.944562985437798 -3 -2 2
481 1 2 -1.1794 4.176622840070959 2.936678213162729 7.0639763381111615 2 3 1
722 1 1 0.5897 0.6116586534087473 2.2427211887546132 6.011149279539136 3 0 2
64 1 2 -1.1794 2.013080341601619 2.146803100223183 14.620299681515718 3 1 -1
713 1 1 0.5897 2.2394742982836795 5.467456572737174 12.062682993763818 -7 -1 1
467 1 1 0.5897 4.549175770562076 3.5508582588194324 15.642974273524773 4 -2 7
496 1 2 -1.1794 3.6537570070505487 5.378314193901396 14.80825695418911 -3 1 1
564 1 1 0.5897 4.138727407717171 4.183507340102939 13.073695187683038 1 3 2
498 1 1 0.5897 4.522596408761151 5.7801554805227555 14.812920916952491 -3 1 0
497 1 1 0.5897 3.1849294487459567 5.811966207097051 15.521368744699089 -3 1 1
466 1 2 -1.1794 4.534645484502697 2.6679646892799527 15.273290423284509 4 -2 7
712 1 2 -1.1794 1.8621235769832496 4.699844137431927 12.492554577803952 -7 -1 1
65 1 1 0.5897 1.9582075903351874 1.958499226690914 13.683317239576676 3 1 -1
714 1 1 0.5897 1.8300262640825877 4.935557944643941 13.419813301909018 -7 -1 1
417 1 1 0.5897 0.8514646509667643 3.6280860704168694 14.980645305092914 3 -1 0
66 1 1 0.5897 2.951016452383891 2.2259546079621875 14.794662687587234 3 1 -1
61 1 2 -1.1794 3.247677434477846 2.82700600350028 20.765274984386878 -4 -1 4
389 1 1 0.5897 3.5510267816414105 2.9762919300753214 18.996121348246113 4 5 2
503 1 1 0.5897 3.792799428960888 6.194672469247201 21.021999648979303 -4 2 0
63 1 1 0.5897 2.4208497416863026 2.35705213278002 20.874280436391892 -4 -1 4
689 1 1 0.5897 2.5284965706254874 5.575989316690478 17.807663310625564 2 -2 1
390 1 1 0.5897 2.7791425668330776 3.4388234074293944 17.77853283810296 4 5 3
388 1 2 -1.1794 3.6691430248986987 3.3206564536560066 18.110748607137452 4 5 3
504 1 1 0.5897 3.280863094054462 4.797252700646891 21.300226040541546 -4 2 0
688 1 2 -1.1794 2.990480371110521 6.3934207830465555 17.621236029262846 2 -2 1
62 1 1 0.5897 3.8549729775862365 2.3851095398915225 21.358832608973316 -4 -1 4
139 1 2 -1.1794 0.9857272123323029 3.997747483219073 17.927056876666278 0 0 2
309 1 1 0.5897 4.296943330418152 6.677302662698285 18.78453168305414 -1 8 -4
130 1 2 -1.1794 1.6892700462804642 6.941454035501336 2.6646726924328155 -5 0 0
602 1 1 0.5897 3.417846713628981 7.927712395030219 2.60811593559045 1 4 0
603 1 1 0.5897 4.3963797333813925 8.955183367782716 2.07983112250088 1 4 1
82 1 2 -1.1794 2.7594503914809283 11.191695569821546 0.8435866874035852 -1 -3 -7
404 1 1 0.5897 2.602523299390507 11.14966144364411 2.6402783733132296 6 -4 0
132 1 1 0.5897 1.217475383452752 7.674577161043181 2.2692957171369192 -5 0 0
99 1 1 0.5897 1.892763913941396 7.308280093984924 4.5684271058569905 1 -6 6
174 1 1 0.5897 2.275431178184005 10.621033413193471 5.3979665606279195 2 4 -2
403 1 2 -1.1794 2.5000588854454096 10.928237372121671 3.565960922706662 6 -4 0
97 1 2 -1.1794 1.8223049835688117 7.4442485724878225 5.513374804444547 1 -6 6
405 1 1 0.5897 3.3957433244932234 10.853250653182261 3.8953703434920426 6 -4 0
98 1 1 0.5897 2.153521693467201 8.331391670824177 5.653557240216699 1 -6 6
601 1 2 -1.1794 4.274084775712142 8.318090192054235 2.7837892885924194 1 4 1
607 1 2 -1.1794 0.6286035453714179 9.239231228760975 1.8655460240543784 5 7 2
809 1 1 0.5897 4.793583277495812 8.539575533473766 4.888583151226996 -1 1 -1
490 1 2 -1.1794 3.2471264770150405 11.618009869340405 8.011352484077886 2 3 4
605 1 1 0.5897 2.0127146395091438 9.675521617702886 10.882851184067903 -6 -1 -1
9 1 1 0.5897 4.298719588249702 7.465465650730448 8.176903995232138 -1 -3 0
173 1 1 0.5897 2.613149662021952 10.56180218492035 6.872654522471759 2 4 -2
313 1 2 -1.1794 4.261585183238406 11.730469625790992 10.42777738923921 0 -4 2
172 1 2 -1.1794 2.0832070486357304 10.134475849049862 6.199647634955427 2 4 -2
296 1 1 0.5897 1.7435279379860322 11.114112370288606 8.985309286941751 -4 4 3
8 1 1 0.5897 2.954925116398926 8.157801198509304 8.092346059307157 -1 -3 0
295 1 2 -1.1794 1.1416763097991378 10.781172558442254 9.651152137226395 -4 4 3
7 1 2 -1.1794 3.8961036343313245 8.331531368066024 8.111917066753445 -1 -3 0
810 1 1 0.5897 4.725798297296281 8.438941736956087 6.397736972314194 -1 1 -1
297 1 1 0.5897 0.8800451966065342 11.556775507237754 10.14755982171671 -4 4 3
114 1 1 0.5897 0.693552638531471 7.140038761838148 8.309944612548477 -3 -2 2
492 1 1 0.5897 3.592136775637488 11.669519472890265 8.902814105096503 2 3 4
315 1 1 0.5897 4.809878643081548 10.945755084733463 10.42512675178152 0 -4 2
439 1 2 -1.1794 3.014521977905936 6.824272215001508 10.932834231179696 1 -3 -1
441 1 1 0.5897 2.8050651194560805 6.844956426060873 9.998955274457932 1 -3 -1
299 1 1 0.5897 2.9724348232611204 11.20731295427272 14.676248187947854 -2 -1 2
606 1 1 0.5897 1.3167832920859597 9.102358664979882 12.099211921710136 -6 -1 -1
501 1 1 0.5897 4.47906012271703 10.108088349214302 13.496594357191475 2 -2 -2
196 1 2 -1.1794 2.9568614013530325 8.32865770112565 14.814779156490065 0 -3 1
500 1 1 0.5897 3.262118307282797 10.19408792865415 12.59997808429595 2 -2 -2
198 1 1 0.5897 3.9071589272309732 8.419621691088892 14.743557958132087 0 -3 1
788 1 1 0.5897 1.2428146950712982 7.444703460402512 14.162218676905642 2 0 5
499 1 2 -1.1794 3.9066245073094934 10.735864500234294 13.055468379332961 2 -2 -2
604 1 2 -1.1794 2.183415178061506 9.231570325218124 11.713625116839772 -6 -1 -1
242 1 1 0.5897 4.775683173835792 6.924708080961834 11.680580242047125 -2 -3 2
233 1 1 0.5897 1.0990922436223096 10.86215231311727 15.984581789001625 -4 2 2
298 1 2 -1.1794 2.589965651559505 11.801960214697832 15.321611038756261 -2 -1 2
440 1 1 0.5897 2.574329217354191 7.593518515433749 11.294600646335525 1 -3 -1
197 1 1 0.5897 2.73559428943527 8.76054313650237 15.639953067628067 0 -3 1
314 1 1 0.5897 3.9504367496464763 11.802812839520179 11.330181701697288 0 -4 2
456 1 1 0.5897 3.746275711153341 9.573507970050397 17.708401617985764 4 -5 0
308 1 1 0.5897 4.104739044362794 7.715941255326967 19.869222558432995 -1 8 -4
307 1 2 -1.1794 4.744708547076053 7.095550421259118 19.520034707526584 -1 8 -4
73 1 2 -1.1794 2.6563152549356737 8.803800496959255 20.353954763529707 2 -1 2
455 1 1 0.5897 2.356971242533888 10.169107276032888 17.794463996340966 4 -5 0
74 1 1 0.5897 1.8604387232518276 8.32232066922578 20.580110956540025 2 -1 2
75 1 1 0.5897 2.589544800598804 8.947954847915188 19.409946625540513 2 -1 2
454 1 2 -1.1794 2.820827865610638 9.355219258235799 17.597457844021953 4 -5 0
305 1 1 0.5897 2.3879623019003953 11.250724583474717 19.80281036302737 3 -3 -8
304 1 2 -1.1794 1.8745268356753613 11.351124986287239 19.001129202711482 3 -3 -8
306 1 1 0.5897 0.970998766623923 11.189418438647515 19.272936881233612 3 -3 -8
83 1 1 0.5897 3.59415032347129 11.573972458757364 21.299981315164473 -1 -3 -8
690 1 1 0.5897 2.2998004532073515 7.008498837400322 17.374215456746477 2 -2 1
84 1 1 0.5897 2.74917336730193 10.324964340036692 21.164868961318213 -1 -3 -8
645 1 1 0.5897 1.4172434483952054 14.401289647208323 4.013718746855741 2 -3 -2
644 1 1 0.5897 2.0105949611785805 15.792079610374465 4.090665246841059 2 -3 -2
643 1 2 -1.1794 2.205894642573252 14.874215125198047 4.279772590607272 2 -3 -2
479 1 1 0.5897 3.4408750275420434 14.172311352189105 5.612730260895721 -4 3 -1
28 1 2 -1.1794 4.419973789355698 13.663523264521208 3.1059775854354776 -9 -2 6
30 1 1 0.5897 4.509099713602412 12.901128779443615 3.6779921651331406 -9 -2 6
29 1 1 0.5897 3.541535344978576 13.998084386274702 3.2871233018368975 -9 -2 6
236 1 1 0.5897 1.4432817711378951 13.929408134559992 1.3437098676011754 0 -2 -1
237 1 1 0.5897 2.525309032594377 13.02799380046487 0.787889883007697 0 -2 -1
32 1 1 0.5897 4.409140365911618 14.644953243576257 0.9450840649843317 4 6 -1
235 1 2 -1.1794 2.287462143386268 13.94930347469902 0.8927566682409926 0 -2 -1
480 1 1 0.5897 2.526484822057914 14.042260599570072 6.812433902098073 -4 3 -1
277 1 2 -1.1794 2.755907408167716 14.611075771514745 10.493143624127494 -1 -5 1
478 1 2 -1.1794 3.441796300528813 13.956717641742298 6.545425797093231 -4 3 -1
577 1 2 -1.1794 3.837366735768204 16.018267745498633 8.291052895858076 1 4 -1
579 1 1 0.5897 3.948098953665392 15.298251307012938 7.669994756545074 1 4 -1
491 1 1 0.5897 3.4305004283276292 12.478001241793855 7.632955613548487 2 3 4
101 1 1 0.5897 0.8151823564922817 14.787536708982438 8.0289498472576 10 -5 -2
100 1 2 -1.1794 0.8776233455748332 14.140643831351149 7.326083640053183 10 -5 -2
578 1 1 0.5897 3.3963757841203654 15.621477340468008 9.042366099807566 1 4 -1
278 1 1 0.5897 2.0190390962711096 15.190353549821074 10.687711259977524 -1 -5 1
217 1 2 -1.1794 3.7617673140804264 13.971048269811757 12.932871724577234 5 -1 2
852 1 1 0.5897 1.3078158711285512 14.71237299438536 15.6883636736335 -5 1 -1
219 1 1 0.5897 3.2401064623200213 13.372143435026246 13.467264247594349 5 -1 2
279 1 1 0.5897 3.2244316856043573 14.531318842165119 11.324114197877577 -1 -5 1
152 1 1 0.5897 1.829124032882697 15.51816900375448 13.251327553282051 0 -1 2
850 1 2 -1.1794 1.3027551654377119 14.246138842686747 14.852297882955154 -5 1 -1
851 1 1 0.5897 1.5014938108204725 13.338436177716032 15.082476301586453 -5 1 -1
151 1 2 -1.1794 1.5795175124683003 16.25686808587932 12.69593845996395 0 -1 3
672 1 1 0.5897 4.4030767074224055 14.163020164457935 14.872626136593512 5 0 3
377 1 1 0.5897 1.8145030171142589 13.191559965516014 11.12154636359084 1 4 1
400 1 2 -1.1794 3.5261901343759154 16.76428675839727 16.27766367210628 -1 -4 1
670 1 2 -1.1794 4.502533391237232 14.36287665696988 15.803510380035615 5 0 3
376 1 2 -1.1794 1.1739918009793506 12.596977294598961 11.512208270561704 1 4 1
218 1 1 0.5897 4.660970335416827 13.657015424317875 13.028772887632103 5 -1 2
402 1 1 0.5897 3.80180322542333 15.883614493262113 16.022910914450982 -1 -4 1
300 1 1 0.5897 3.2654167079251533 11.893266377454744 15.993785371680588 -2 -1 2
592 1 2 -1.1794 2.2765508204567633 16.097569563773543 19.679449321794394 4 -1 -4
420 1 1 0.5897 0.6625746636477254 16.724748538157378 20.66961175683641 -6 -4 5
600 1 1 0.5897 1.7354518487297976 14.664292624306022 18.48690775553881 0 -5 -5
593 1 1 0.5897 2.6240747522674672 15.399573629145532 20.23482348730353 4 -1 -4
599 1 1 0.5897 1.0936430118989993 13.349265082518658 18.098254648195542 0 -5 -5
598 1 2 -1.1794 1.3269531739306142 14.209900952046905 17.749981079393287 0 -5 -5
594 1 1 0.5897 3.048858516350399 16.478395871362032 19.261163406746405 4 -1 -4
673 1 2 -1.1794 4.799942258503002 12.054676193855748 17.23174350082762 -3 -1 -3
401 1 1 0.5897 2.571487795504325 16.712642011679293 16.32531847907252 -1 -4 1
675 1 1 0.5897 4.735900041367042 12.939041606946287 16.87092245000663 -3 -1 -3
756 1 1 0.5897 3.5942135329160703 20.449733174704 2.3088649093773324 -4 -4 -7
655 1 2 -1.1794 2.489277363993139 17.332361113960324 2.6609937495215616 -1 1 0
656 1 1 0.5897 3.1930760696287845 17.06238175277479 2.0709392818613934 -1 1 0
657 1 1 0.5897 1.684668054445787 17.11852513657714 2.1884942472472986 0 1 0
229 1 2 -1.1794 3.2087242072760223 21.130944107478392 5.239730950585932 5 3 3
358 1 2 -1.1794 4.545093663314951 17.399766198461457 4.95707827192928 5 -2 -6
230 1 1 0.5897 2.627759249878059 21.509601839108505 4.579816844919575 5 3 3
754 1 2 -1.1794 2.7177158894292166 20.18553859366253 2.0288539836005843 -4 -4 -7
364 1 2 -1.1794 4.84903270237416 17.447420645818138 1.1752058259036164 3 4 3
755 1 1 0.5897 2.68738137349033 19.2428735637421 2.192702405557105 -4 -4 -7
79 1 2 -1.1794 2.163575400139887 18.495789081931257 5.477651368347011 0 0 -5
80 1 1 0.5897 2.4606411567859867 19.39047447118834 5.311314517481847 0 0 -5
81 1 1 0.5897 2.8920328200541863 17.94408075558801 5.192348874987642 0 0 -5
116 1 1 0.5897 4.638937977795854 20.347087500807845 4.498580430453934 -5 -2 5
680 1 1 0.5897 0.8098479777733629 18.85549699184864 4.531296769420401 -6 -8 -1
360 1 1 0.5897 4.449342685979023 16.892294153883718 4.151048761606894 5 -2 -6
13 1 2 -1.1794 2.5238078565642637 18.65841266238798 8.251499358671346 0 -5 -6
15 1 1 0.5897 2.2392396797785206 18.481158175934567 7.354837094012837 0 -5 -6
44 1 1 0.5897 1.990382195653546 20.236268982313923 8.489220947751352 2 6 -1
14 1 1 0.5897 2.8216845219703357 17.810354871208645 8.580846657034929 0 -5 -6
43 1 2 -1.1794 1.4922707798648642 21.039561859531453 8.337615426491883 2 6 -1
294 1 1 0.5897 4.117946477765147 19.743586105263333 7.942253567692819 1 1 5
45 1 1 0.5897 0.8380240326987463 21.051751160199203 9.036324885469387 2 6 -1
696 1 1 0.5897 1.615982368892333 18.61315494857999 10.53384204963757 0 -2 -1
292 1 2 -1.1794 4.722734070312938 20.415197960208623 8.25784199847785 1 1 5
586 1 2 -1.1794 1.949926345380529 21.597773620440606 12.018296894345035 2 1 6
695 1 1 0.5897 1.207740215671117 18.58413484318089 11.991497400283693 0 -2 -1
661 1 2 -1.1794 0.8412047338350093 18.950141128230975 14.188603217782692 -3 -6 1
168 1 1 0.5897 0.8670915750932274 17.936850207114453 15.66042268084654 -3 -4 4
662 1 1 0.5897 1.5656642883684444 19.326257156948728 14.688699091330706 -3 -6 1
148 1 2 -1.1794 4.830016116380701 21.125820713501547 12.69741028535227 -4 -1 0
553 1 2 -1.1794 3.5649685201738603 18.99855595937435 14.871723593492945 -5 -8 2
587 1 1 0.5897 2.872797603361835 21.351465077304773 12.081747974608652 2 1 6
554 1 1 0.5897 3.748849663574757 18.113590334451516 15.187027849060307 -5 -8 2
694 1 2 -1.1794 1.1890955008950252 19.13811191458099 11.211017998337368 0 -2 -1
25 1 2 -1.1794 4.5013214076961425 17.634528131028752 12.716816181522542 -2 7 4
588 1 1 0.5897 1.4830510094803189 20.76455964695976 11.953410660839017 2 1 6
555 1 1 0.5897 3.7628821075945034 19.565046609304254 15.617600465778231 -5 -8 2
26 1 1 0.5897 4.624281283548988 18.264561650092375 12.006643629294732 -2 7 4
27 1 1 0.5897 4.376606752340767 18.174234729480062 13.49754711724645 -2 7 4
863 1 1 0.5897 1.4125048867579886 21.311474606746565 16.00705510858019 -2 -4 2
153 1 1 0.5897 2.1392133892687863 16.976541171599173 12.987860476498941 0 -1 3
703 1 2 -1.1794 4.238693353509573 20.294260145631867 17.27240500650865 6 -1 -1
447 1 1 0.5897 3.6197639750713475 18.854318893735034 20.242756676137184 5 0 -2
167 1 1 0.5897 0.7896402508114615 17.673859989154337 17.149422983442257 -3 -4 4
445 1 2 -1.1794 2.966118750893778 19.53526018267258 20.083221624004423 4 0 -2
862 1 2 -1.1794 1.4702119757798187 20.72137273478433 16.758609318091466 -2 -4 2
864 1 1 0.5897 2.402601235798288 20.69782824880145 16.974237303358336 -2 -4 2
446 1 1 0.5897 2.876031518305784 19.98326751352461 20.924386350888092 4 0 -2
705 1 1 0.5897 3.990492726608317 19.92637962576039 18.120607208191778 6 -1 -1
819 1 1 0.5897 4.448659775725043 17.35091973371089 17.842874865630755 4 0 2
166 1 2 -1.1794 0.7437336316514386 17.23517610644486 16.29981570250925 -3 -4 4
267 1 1 0.5897 1.2976933546941873 18.928655395027924 19.261996199906896 -3 -2 -1
817 1 2 -1.1794 4.604060686086264 17.223257664355103 18.77882933547393 4 1 2
266 1 1 0.5897 0.722967781604619 19.586181809342804 18.025101616969017 -3 -2 -1
841 1 2 -1.1794 0.7198385728284897 21.598834192364684 21.00044140547938 -2 3 0
584 1 1 0.5897 6.670789121212572 3.057375600178106 3.939348500467431 4 -5 4
363 1 1 0.5897 6.725725355617491 6.312194927752721 3.9976770838894264 3 -3 0
331 1 2 -1.1794 6.570102849403331 3.6911206328389796 5.785177322358229 2 -2 -4
70 1 2 -1.1794 8.956871528550344 5.417882836968004 1.8181929198099682 3 3 -4
361 1 2 -1.1794 6.927742407025034 6.417943774877781 4.927401778384391 3 -3 0
72 1 1 0.5897 8.055757010076698 5.263510816240647 1.5343892668135717 3 3 -4
583 1 2 -1.1794 6.537045850350494 3.3857822339376753 3.0501672622183396 4 -5 4
585 1 1 0.5897 5.774389534568332 3.9602745123431777 3.1186717084318025 4 -5 4
261 1 1 0.5897 5.996859512935104 5.9041726579819604 1.603091619248863 3 -1 5
333 1 1 0.5897 6.67073466410243 4.576805379655208 5.436159762275183 2 -2 -4
259 1 2 -1.1794 6.3623103652744275 6.59452487127645 2.156482248830083 3 -1 5
96 1 1 0.5897 7.934569987143549 2.8068231359999047 2.087822281865022 -2 1 -1
94 1 2 -1.1794 8.624243112088504 2.2023700046511325 1.8132917544562777 -2 1 -1
633 1 1 0.5897 5.798702392107637 2.025437998770255 1.9317557503222258 2 5 6
95 1 1 0.5897 9.074949034429617 2.6591442423491043 1.1029286491643489 -1 1 -1
191 1 1 0.5897 7.939080453229343 2.4008225393932636 9.982473721943329 3 5 -9
482 1 1 0.5897 5.048279161359753 3.08126173802021 6.695605996729428 2 3 1
796 1 2 -1.1794 5.185388903377685 3.716102892759304 10.049622613976654 -1 -6 -3
329 1 1 0.5897 8.247852545060722 6.341912145173759 8.11391656654673 4 6 -3
839 1 1 0.5897 5.00208868327853 5.0766675635702665 8.543576129721782 -3 -1 -5
192 1 1 0.5897 6.431068227980391 2.2852092214520066 9.913099717251685 3 5 -9
798 1 1 0.5897 5.098771121955941 4.145417020581512 10.90083920768225 -1 -6 -3
838 1 2 -1.1794 5.058711493038749 5.880764508955873 8.027209586133335 -3 -1 -5
397 1 2 -1.1794 8.87658568500601 2.2776325227132195 7.135194904097607 6 3 -3
330 1 1 0.5897 6.848545841192966 6.324222042210392 8.69174780002832 4 6 -3
328 1 2 -1.1794 7.748459254791342 6.579401725744424 8.895331021171991 4 6 -3
332 1 1 0.5897 7.280960149066458 3.601098134532637 6.419977335318667 2 -2 -4
840 1 1 0.5897 5.043792078467042 5.583344345869175 7.1174035133642155 -3 -1 -5
246 1 1 0.5897 9.01244285685313 5.320198908588102 6.0747722663195605 -6 5 -2
20 1 1 0.5897 7.318094230475962 2.6482096242742483 13.484584348662702 -5 -2 0
620 1 1 0.5897 8.019971553942462 5.9474091019680335 15.380865986739991 4 1 1
354 1 1 0.5897 7.1443699706177695 2.551143384607415 15.726428083506272 6 1 -2
19 1 2 -1.1794 7.1434932010107905 3.346053314465305 14.116177902896442 -5 -2 1
21 1 1 0.5897 6.240849590771033 3.610518092631736 13.938206351039863 -5 -2 1
551 1 1 0.5897 7.315301056543525 4.689447501882487 12.828754991952668 -6 7 -6
619 1 2 -1.1794 8.905123782209143 5.63549656471856 15.569604743719264 4 1 1
550 1 2 -1.1794 7.5211489859376295 5.467750817404152 12.310818505995208 -6 7 -6
187 1 2 -1.1794 6.284314734326467 6.449392148202328 15.242868787206055 -1 6 0
552 1 1 0.5897 7.72240648298187 5.129101264101974 11.438332556092151 -6 7 -6
188 1 1 0.5897 6.060445695198709 6.271909927261084 16.156536900303642 -1 6 0
562 1 2 -1.1794 4.987293211972008 3.907324301388639 12.72720794777902 1 3 2
243 1 1 0.5897 6.230551941600978 6.747972671138028 12.060571389196582 -2 -3 2
468 1 1 0.5897 4.999681082419672 2.131289000756221 15.915240499696313 4 -2 7
563 1 1 0.5897 4.94648737140253 2.950907410079994 12.726519001189127 1 3 2
815 1 1 0.5897 5.21384005418866 4.64811604885952 17.79409426889191 -3 11 -3
199 1 2 -1.1794 6.620369581017593 4.960311831007623 20.565835777742954 0 1 -2
814 1 2 -1.1794 6.106991455956166 4.879824695571575 17.539079257052364 -3 11 -3
816 1 1 0.5897 6.524851385711349 4.041823022035152 17.340179559809073 -3 11 -3
201 1 1 0.5897 6.852369105928294 4.049319629168128 20.385120102206407 0 1 -2
352 1 2 -1.1794 7.0868273552025975 2.1708207203415517 16.603027896162764 6 1 -2
200 1 1 0.5897 6.323813487231585 5.304164466697502 19.723101390387903 0 1 -2
561 1 1 0.5897 6.4741878922366265 2.2451537217081206 18.771946330382825 6 2 -1
353 1 1 0.5897 7.997321000765908 2.06624293458912 16.879513675612287 6 1 -2
11 1 1 0.5897 7.505066908498765 6.326614661690956 17.97335280258349 -5 -2 2
559 1 2 -1.1794 6.8967599959479235 2.359349239502047 19.623288886981342 6 2 -1
710 1 1 0.5897 9.081333620250676 4.859450516032929 17.084583623532033 -6 -4 -1
808 1 2 -1.1794 5.305466338567098 8.698963008440192 5.681656780509777 -1 1 -1
623 1 1 0.5897 8.386277156634893 11.564192153562225 5.737119924272619 5 -1 6
827 1 1 0.5897 6.925456152215632 9.406821333745514 5.093279375141225 2 2 2
506 1 1 0.5897 8.655089175515222 10.594202980613076 2.997371968239662 2 -1 -5
516 1 1 0.5897 6.314107177330946 11.349087450060269 2.206742169379425 -1 -3 1
362 1 1 0.5897 6.19945162411171 6.933457354523661 5.274135589676195 3 -3 0
826 1 2 -1.1794 7.692239664175851 9.899347954307911 4.800292912661888 2 2 2
828 1 1 0.5897 8.435102836522628 9.447701115758608 5.20102605435042 2 2 2
213 1 1 0.5897 5.109849324832476 10.87629466920543 5.415627723402175 4 0 2
227 1 1 0.5897 8.528070680258768 7.665753226974393 3.8753153451843114 0 -2 2
260 1 1 0.5897 5.64456243118544 7.2181026532050865 2.2677434680253947 3 -1 5
514 1 2 -1.1794 7.032697770616523 11.761801957882575 2.685985824165762 -1 -3 1
211 1 2 -1.1794 5.0651338606245275 11.56666286083757 4.753960062885599 4 0 2
228 1 1 0.5897 9.071019808884415 7.13717660667009 2.56452364280515 0 -2 2
212 1 1 0.5897 5.919991731215467 11.542581425462288 4.323819436737214 4 0 2
88 1 2 -1.1794 6.167204250577759 11.272513783834055 7.481470503823985 10 -3 4
718 1 2 -1.1794 8.047519823536911 9.556213652547765 8.156072598378316 5 3 -1
719 1 1 0.5897 7.474524450000778 9.08340575127164 8.759820962668648 5 3 -1
647 1 1 0.5897 8.083975085348033 11.13984465464511 9.276673938220314 -6 1 0
720 1 1 0.5897 7.46175037368408 10.146384629254817 7.681777055235116 5 3 -1
146 1 1 0.5897 5.2096226886430745 9.05230600982107 9.371429636966589 -1 -1 -3
145 1 2 -1.1794 5.795174922020762 9.324823067177249 10.07800330949638 -1 -1 -3
147 1 1 0.5897 5.744913569000784 8.615181589910978 10.71852552897862 -1 -1 -3
90 1 1 0.5897 5.233761406958511 11.232050962588595 7.689970343631863 10 -3 4
248 1 1 0.5897 5.686670229045607 8.634194328857028 13.509293085600133 -1 2 -1
853 1 2 -1.1794 6.778546861661695 11.160541618609189 15.490371746624305 -5 1 -1
249 1 1 0.5897 5.95234282320937 9.785621344326186 14.455825225911132 -1 2 -1
615 1 1 0.5897 8.027402480527812 10.778757986946419 11.660251883988328 -4 4 2
613 1 2 -1.1794 8.160337945040633 11.035660422038783 12.57278266430846 -4 4 2
854 1 1 0.5897 7.573000051825949 10.75113479704232 15.83332788269242 -5 1 -1
247 1 2 -1.1794 5.460008923294556 8.968425415821041 14.377232803594989 -1 2 -1
189 1 1 0.5897 6.11400951326012 7.384776278130464 15.131378754010449 -1 6 0
241 1 2 -1.1794 5.568874685201244 7.418308458540289 11.889429431073104 -2 -3 2
614 1 1 0.5897 8.950098829178403 11.576423346191897 12.557265911613234 -4 4 1
109 1 2 -1.1794 5.684292210255261 8.896173756086394 17.63592365096477 3 1 -9
310 1 2 -1.1794 7.740640269373816 8.173904343296385 20.89570655118952 -2 3 1
745 1 2 -1.1794 7.252560373966764 10.85401422661894 18.802853482447794 3 1 -10
311 1 1 0.5897 7.789254675498825 7.946451029702129 19.967102850988056 -2 3 1
110 1 1 0.5897 5.3147899638833085 8.23051552231098 18.216253047624917 3 1 -9
380 1 1 0.5897 8.365701353157132 11.361968501269072 20.29605202432647 10 1 2
746 1 1 0.5897 7.791999318862744 10.922221877195636 18.014962252271495 3 1 -10
111 1 1 0.5897 6.121878286556985 9.511476399802469 18.224397878846347 3 1 -9
12 1 1 0.5897 6.9471377831780625 7.734072089176169 17.965038976804244 -5 -2 2
10 1 2 -1.1794 7.724302137773987 7.229228229932103 18.204896405737593 -5 -2 2
57 1 1 0.5897 5.625840391096507 10.558199341889708 20.668052857285893 -9 1 1
674 1 1 0.5897 5.487012288733844 11.633765845438209 16.714851181542414 -3 -1 -3
747 1 1 0.5897 6.767712491223017 11.678854169852926 18.833885220293524 3 1 -10
56 1 1 0.5897 6.333844447229627 9.31619011795165 21.166494871142625 -9 1 1
55 1 2 -1.1794 5.637809202042137 9.933145330575911 21.393002575924083 -9 1 1
312 1 1 0.5897 7.401944586702967 7.384728222262493 21.318682608862616 -2 3 1
122 1 1 0.5897 5.55990409475092 14.923236504420228 3.377553194821587 5 -2 1
767 1 1 0.5897 8.006383977172487 14.808744811185738 1.126149925162089 -3 1 -2
515 1 1 0.5897 7.038668853861727 12.667623511913108 2.3763782064290075 -1 -3 1
813 1 1 0.5897 8.016990438619638 13.919418632784145 5.299494853507409 -5 5 -4
123 1 1 0.5897 6.925318664805445 15.225203638850342 3.9578467750068334 5 -2 1
121 1 2 -1.1794 6.23765002900124 15.598673376717164 3.406462703276386 5 -2 1
766 1 2 -1.1794 7.546284769936407 13.976145798274063 1.0190417344367433 -3 1 -2
589 1 2 -1.1794 8.723027605850174 16.501464770480272 0.8433757447982384 5 6 3
812 1 1 0.5897 8.880164220890519 14.485077936525158 4.191685570689129 -5 5 -4
811 1 2 -1.1794 8.290351957743678 14.74504732421651 4.899446860737892 -5 5 -4
844 1 2 -1.1794 7.865446649139845 15.275721927939022 10.842986048279238 -3 2 1
845 1 1 0.5897 8.693029985475015 15.139141902968028 10.381638176363913 -3 2 1
68 1 1 0.5897 6.249904818169578 14.100988679247866 7.769606797220885 2 -3 -1
67 1 2 -1.1794 6.300673394852526 13.875567230228372 6.840607034901696 2 -3 -1
3 1 1 0.5897 6.788986158913009 12.791639066306265 9.46419050341547 1 -6 4
69 1 1 0.5897 5.399899994993114 13.951630790536406 6.525626221802728 2 -3 -1
1 1 2 -1.1794 6.130561306037919 13.460132979538635 9.653848141935388 1 -6 4
2 1 1 0.5897 5.404724586630387 12.976863275795168 10.048802707322583 1 -6 4
627 1 1 0.5897 5.337368637440513 16.66533830237013 8.745854348070795 -9 -3 1
221 1 1 0.5897 8.276639012038784 14.573268810317073 8.234513468272812 3 -2 5
846 1 1 0.5897 7.192217225677042 15.072191934414613 10.193575015134629 -3 2 1
622 1 2 -1.1794 9.068817705640214 12.138688173701404 6.084217392178555 5 -1 6
646 1 2 -1.1794 8.457816345145538 11.889252763056858 9.740375548948315 -6 1 0
89 1 1 0.5897 6.322956017117673 12.189439270859019 7.254822707732505 10 -3 4
47 1 1 0.5897 7.445408995897415 16.12993341555474 5.993515591889607 4 0 0
671 1 1 0.5897 5.449055331510545 14.378942854588127 15.945742063996846 5 0 3
476 1 1 0.5897 7.332599826707787 16.374542303311664 12.306592726955314 7 -4 -3
263 1 1 0.5897 6.709614639344943 13.769858278573633 12.121767314482202 2 -3 6
334 1 2 -1.1794 7.1972909564807654 13.721081147965448 16.06541799172814 6 0 2
262 1 2 -1.1794 6.319412017128335 13.127351846279872 12.71448956472333 2 -3 6
264 1 1 0.5897 6.751482577238334 12.30249783161402 12.492410784013812 2 -3 6
336 1 1 0.5897 8.005077726361716 14.047731814163667 15.668954389137902 6 0 2
855 1 1 0.5897 6.915309798641802 12.098620685997686 15.623458634501155 -5 1 -1
38 1 1 0.5897 9.018881661267642 15.941150892640849 15.994314268579371 -1 3 -2
520 1 2 -1.1794 5.03814120292252 12.226711398997049 19.922528064907553 -4 1 -5
474 1 1 0.5897 7.043225487666214 14.725789440010962 18.91261913443347 2 -2 0
522 1 1 0.5897 4.906199861067709 12.176191020146968 18.97572460458214 -4 1 -5
335 1 1 0.5897 7.345699922770111 13.795011355252097 17.008237142432257 6 0 2
472 1 2 -1.1794 7.467202234814059 13.896054864040101 18.693122083264093 2 -2 0
37 1 2 -1.1794 8.822506634763247 16.67626332832542 16.575198235120233 -1 3 -2
473 1 1 0.5897 8.39790949532449 14.111199638068461 18.630825706487492 2 -2 0
521 1 1 0.5897 5.16992134546985 13.158683692659862 20.097071479949705 -4 1 -5
31 1 2 -1.1794 5.069188721420272 14.76511285537462 20.989774260233396 4 6 -2
33 1 1 0.5897 5.904576896042957 14.628114926636604 21.436731768486204 4 6 -2
365 1 1 0.5897 5.004681773062045 16.614725692788788 21.456896880396272 3 4 2
768 1 1 0.5897 8.042069494517953 13.513156967159153 21.071055498550926 -3 1 -3
540 1 1 0.5897 6.595564603354748 20.028079796544333 1.7392265587279385 -7 -7 0
411 1 1 0.5897 7.324378361177742 17.35715432892887 3.698227840755955 5 2 -5
631 1 2 -1.1794 5.293905264511211 21.480699026145622 1.3385748245878235 2 4 6
409 1 2 -1.1794 8.069467679496032 17.905372923932127 3.451870082349316 5 2 -5
366 1 1 0.5897 5.717871468064725 17.735852373278263 1.4552166435949008 3 4 3
117 1 1 0.5897 4.969953097358649 18.95981529979629 3.9904661013928946 -5 -2 5
410 1 1 0.5897 7.725685192514476 18.48692557166153 2.7736264338850782 5 2 -5
115 1 2 -1.1794 5.1857131255460045 19.88383455453343 3.863902284956339 -5 -2 5
359 1 1 0.5897 5.353247602172673 17.072435402682952 5.352200976007104 5 -2 -6
591 1 1 0.5897 8.46249974822851 17.060905307711593 1.5751833729951277 5 6 3
779 1 1 0.5897 6.439385469728993 20.123207316861667 5.201452551393062 -1 0 -2