LAMMPS data file via write_data, version 30 Jul 2021, timestep = 3250000

1296 atoms
2 atom types
864 bonds
1 bond types
432 angles
1 angle types

-10.85474830894028 12.83474830894028 xlo xhi
-9.316195404148921 12.306193404148921 ylo yhi
0.03446322905763388 21.825535770942352 zlo zhi
-9.285774645041707 2.499577242581737 2.8263771661552473 xy xz yz

Masses

1 1.008
2 15.999

Pair Coeffs # lj/cut/tip4p/long/omp

1 0 0
2 0.21084 3.1668

Bond Coeffs # harmonic/omp

1 450 0.9572

Angle Coeffs # harmonic/omp

1 55 104.52

Atoms # full

322 108 2 -1.1794 -6.5958331048269425 -4.764514685905165 3.0958688335513274 1 1 0
270 90 1 0.5897 -8.580649185355036 -7.481186252164502 1.6523485770722195 1 1 0
269 90 1 0.5897 -9.196906447951008 -6.13786349935441 1.9802621998309036 1 1 0
268 90 2 -1.1794 -8.961170431446085 -6.978501752351814 2.372589052309749 1 1 0
163 55 2 -1.1794 -7.216151201435277 -8.069427346080216 0.4975252652889613 1 1 0
324 108 1 0.5897 -7.216652674271034 -4.470472144576671 3.7624640280059767 1 1 0
164 55 1 0.5897 -6.363372745439064 -8.397241384432153 0.7828737027369815 1 1 0
299 100 1 0.5897 -6.6839838558651365 -7.932351960479099 3.826064456083364 1 1 0
281 94 1 0.5897 -9.203023113220087 -3.831417431594491 1.6539672763883317 1 1 0
314 105 1 0.5897 -9.17485503166489 -6.763629842031464 4.505685510381177 1 1 0
280 94 2 -1.1794 -9.79701595563681 -4.571176059862422 1.5267053852729793 1 1 0
259 87 2 -1.1794 -6.6823043622344 -5.436898704645515 0.37476396025941416 1 1 0
282 94 1 0.5897 -10.672278358384997 -4.186029663571257 1.5681799189007066 1 1 0
298 100 2 -1.1794 -6.04563819764341 -7.305882463126267 4.16710760717809 1 1 0
73 25 2 -1.1794 -8.522073437437546 -3.6311352580081877 4.789702395450284 1 0 0
275 92 1 0.5897 -10.49343837002431 -7.806972938028078 2.8627345658297623 1 1 0
261 87 1 0.5897 -6.920643913023223 -5.225636474507127 1.2774241107763988 1 1 0
260 87 1 0.5897 -6.781673258782415 -6.387148488320031 0.31641698371434857 1 1 0
313 105 2 -1.1794 -9.157777299291254 -6.436396539428105 5.405050711971933 1 1 0
323 108 1 0.5897 -6.26213860088883 -5.597306573279798 3.4294230946516517 1 1 0
315 105 1 0.5897 -9.014606349063566 -5.494250367092121 5.314993566424027 1 1 0
300 100 1 0.5897 -5.195704863526974 -7.708893409268907 3.990029020059399 1 1 0
419 140 1 0.5897 -9.03787789992265 -5.4144386880819795 8.80902362313767 1 0 0
418 140 2 -1.1794 -9.692566663371103 -5.946759341553576 9.2609885539599 1 0 0
428 143 1 0.5897 -6.612425210975632 -6.99021681376916 10.111592596112674 1 0 0
429 143 1 0.5897 -6.165404919077307 -7.272858181924811 8.693080170130619 1 0 0
427 143 2 -1.1794 -5.829350858352516 -7.111816261604515 9.574724199528749 1 0 0
420 140 1 0.5897 -9.188888976496848 -6.4647271438225165 9.88878670731423 1 0 0
414 138 1 0.5897 -6.850983799371478 -4.956449255933713 7.657254098658502 1 0 0
413 138 1 0.5897 -7.433839376732053 -3.5593772755750868 7.642427813189176 1 0 0
412 138 2 -1.1794 -7.468010319340744 -4.388771853368366 8.119010754716077 1 0 0
351 117 1 0.5897 -6.901757992160598 -2.8426206801185785 10.774857317071925 0 0 0
350 117 1 0.5897 -7.284641172362572 -3.9673627089547123 9.836595301638582 0 0 0
618 206 1 0.5897 -7.770552831490957 -7.490734919496732 6.468496201916775 1 1 0
627 209 1 0.5897 -10.524325325802042 -6.959941300164876 6.475355277317381 1 1 0
631 211 2 -1.1794 -5.492348766259266 -5.4904842838489945 6.434399641934265 1 1 0
616 206 2 -1.1794 -7.240132363779494 -7.803115446701838 7.201424145087973 1 1 0
633 211 1 0.5897 -5.8203244209802145 -6.1023252334253115 5.775357250946027 1 1 0
349 117 2 -1.1794 -7.177970537799993 -3.759066926893478 10.764737021143008 0 0 0
626 209 1 0.5897 -10.580944349525566 -6.7743647831364235 7.976751397324367 1 1 0
661 221 2 -1.1794 -9.337761819287225 -4.566391526775401 12.310515533822155 0 0 0
739 247 2 -1.1794 -11.50984983905757 -3.0695493694852996 11.65873798121031 1 0 0
780 260 1 0.5897 -6.779624374842072 -4.3611087972655485 15.110034225470473 0 0 0
779 260 1 0.5897 -6.823020237850376 -3.302653927248186 14.028576780977257 0 0 0
778 260 2 -1.1794 -7.385560155011572 -3.814843835478097 14.609495131833677 0 0 0
682 228 2 -1.1794 -7.3206119788860615 -6.961479611616008 13.701753525407407 0 0 0
662 221 1 0.5897 -8.888384929816631 -4.574888311076618 13.155586635247753 0 0 0
652 218 2 -1.1794 -5.435475208373678 -5.509099535315487 12.638227604044133 0 0 0
654 218 1 0.5897 -5.926444113769446 -4.947667099112454 12.038354579110461 0 0 0
653 218 1 0.5897 -6.101195008860788 -6.0590067471937825 13.051366869583038 0 0 0
768 256 1 0.5897 -8.796405057996441 -2.603338904808627 15.040604930004458 0 0 0
740 247 1 0.5897 -10.711795827393395 -3.4785360525492433 11.993325250352669 1 0 0
684 228 1 0.5897 -8.04128872244029 -6.620460817123195 14.231411270742898 0 0 0
766 256 2 -1.1794 -9.576240758060937 -2.0509920375072834 15.094526523721141 0 0 0
663 221 1 0.5897 -8.649987596301026 -4.368260797636005 11.67494107203752 0 0 0
729 243 1 0.5897 -7.952193014565114 -6.981097662057664 12.044002871438588 1 0 0
788 263 1 0.5897 -4.20832920016833 -4.91074148823191 15.640240591123405 0 0 0
767 256 1 0.5897 -10.305309969005338 -2.6692957463608513 15.14381117697096 0 0 0
758 253 1 0.5897 -8.762838395190682 -5.448973184333839 15.865826650334949 0 0 0
727 243 2 -1.1794 -8.140458997740495 -7.283501324822758 11.155564430607665 1 0 0
757 253 2 -1.1794 -9.24910849116466 -6.099989359571466 15.359895154742713 0 0 0
1089 363 1 0.5897 -5.763050232600899 -4.66820555898379 17.405409640016643 0 0 0
1129 377 2 -1.1794 -7.188265263396097 -2.0153545781434783 17.970525313061827 0 0 0
1227 409 1 0.5897 -8.501316732186753 -2.8867651176518017 20.457956861176633 0 0 0
1097 366 1 0.5897 -8.948698826691109 -6.185121934638374 18.08666796143654 0 0 0
1087 363 2 -1.1794 -5.919058614644707 -5.1179419585734145 16.574967304785055 0 0 0
1225 409 2 -1.1794 -7.8116325729345375 -3.4043147996172483 20.87338779126612 0 0 0
1152 384 1 0.5897 -6.612701854449064 -4.052207498650242 19.53924577755106 0 0 0
1248 416 1 0.5897 -5.179665114658291 -1.7714003213725338 20.87296525549155 0 0 0
1151 384 1 0.5897 -5.803006214456467 -5.3308774157799395 19.57256951128653 0 0 0
1150 384 2 -1.1794 -5.7938709954200265 -4.437931694796118 19.227933642480224 0 0 0
1109 370 1 0.5897 -8.272789629635561 -3.6185934135230555 17.69889516294178 0 0 0
1108 370 2 -1.1794 -8.846426560951803 -4.3546257756785325 17.485651215001624 0 0 0
1141 381 2 -1.1794 -8.322748530696925 -6.106986502502307 21.251964879413357 0 0 0
1219 407 2 -1.1794 -9.966986614172168 -1.8815917337903265 20.316887997822157 0 0 0
165 55 1 0.5897 -5.04077892015915 -5.911322289533452 21.68481001033644 1 1 -1
1110 370 1 0.5897 -9.696831646469956 -4.1095950727760515 17.850305267387164 0 0 0
1088 363 1 0.5897 -6.18836889988842 -6.001172401245885 16.82721473123855 0 0 0
1121 374 1 0.5897 -4.374287679969385 -3.4862389718146876 18.7689739441821 0 0 0
1143 381 1 0.5897 -8.19075899500516 -5.159891230287273 21.294897471991916 0 0 0
1130 377 1 0.5897 -6.6027689095667075 -1.870206501421488 18.71368228293594 0 0 0
1131 377 1 0.5897 -6.639943623974999 -1.866056220820255 17.200270961266774 0 0 0
1142 381 1 0.5897 -8.45878874132555 -6.288468096111275 20.322041780387877 0 0 0
1226 409 1 0.5897 -7.559487910091795 -2.89423775354091 21.643102715023865 0 0 0
1221 407 1 0.5897 -10.461001652046601 -2.2728183754231015 19.596396499619708 0 0 0
68 23 1 0.5897 -11.459645109158165 -2.3551948365851807 4.62025959163693 1 0 0
82 28 2 -1.1794 -9.06078157749197 -0.21780049525099088 4.378400762778031 1 0 0
272 91 1 0.5897 -9.613213638930027 -1.5264207926907947 1.5620639381718544 1 1 0
258 86 1 0.5897 -12.653054743291484 -2.8874449973648844 1.076208943500743 1 1 0
271 91 2 -1.1794 -10.389145679116396 -1.1204535246393519 1.1757621718417315 1 1 0
83 28 1 0.5897 -9.722007613168197 -0.8523938601142049 4.102111062828648 1 0 0
69 23 1 0.5897 -11.295280950545562 -2.3782422388248614 3.1155029329080706 1 0 0
84 28 1 0.5897 -8.232127318803414 -0.6930307829953204 4.318082547525524 1 0 0
98 33 1 0.5897 -12.0852668024151 0.4144798616768597 4.606019023332041 1 0 0
54 18 1 0.5897 -11.761164202179566 -0.0842919639749482 2.2397353841355785 1 0 0
53 18 1 0.5897 -12.829693139453532 0.9080712323595765 2.6462032833023406 1 0 0
52 18 2 -1.1794 -12.478199949542308 0.044014043398648894 2.860721320339829 1 0 0
67 23 2 -1.1794 -10.795067954425814 -2.3688602785761166 3.9315010083893216 1 0 0
273 91 1 0.5897 -10.533042315143087 -1.603862558801966 0.3622204680465894 1 1 0
107 36 1 0.5897 -9.420201009854141 1.2267199461602267 3.4322040327836874 1 0 0
75 25 1 0.5897 -9.278333221618595 -3.247734105349748 4.345649795041054 1 0 0
301 101 2 -1.1794 -7.927179862673315 -2.487070358243665 1.6419127078310998 1 1 0
256 86 2 -1.1794 -12.282283343773475 -3.460417794606246 1.7472931754853864 1 1 0
44 15 1 0.5897 -10.411079632314122 0.8409490688213701 0.20755743232316007 1 0 0
74 25 1 0.5897 -8.269430854092786 -2.9771176206352683 5.441386518073482 1 0 0
99 33 1 0.5897 -11.696165668612734 1.5963351111689832 5.468459319411148 1 0 0
1010 337 1 0.5897 -13.057021208529394 1.47642908660832 0.24588347234395855 0 -1 1
426 142 1 0.5897 -8.7760825915514 -1.5414519306828396 6.9724050766767265 1 0 0
411 137 1 0.5897 -13.609609480735799 0.33247611125125154 6.324526385050223 1 0 0
528 176 1 0.5897 -12.206672699290015 0.5665389207779672 9.813646960091823 1 0 0
402 134 1 0.5897 -10.882240818335905 -0.2249061282598923 6.780713333210622 1 0 0
401 134 1 0.5897 -11.07240096624798 -1.2893079871872857 7.840291419828497 1 0 0
400 134 2 -1.1794 -10.396662943893512 -0.8274271000466076 7.344003147161457 1 0 0
527 176 1 0.5897 -11.940650140573846 1.4784630126754923 8.634906103969708 1 0 0
526 176 2 -1.1794 -12.626718458949854 0.9514104375157473 9.044528833398406 1 0 0
424 142 2 -1.1794 -7.903979282252189 -1.9351175443131314 6.996743211205261 1 0 0
537 179 1 0.5897 -9.498243977757499 -0.15830019188392264 8.60655236513301 1 0 0
536 179 1 0.5897 -9.568989556933937 -0.07666005769139161 10.116574507827652 1 0 0
535 179 2 -1.1794 -8.973737604162228 0.05428126413242751 9.378488857264426 1 0 0
417 139 1 0.5897 -8.785716175119507 0.8843076765105611 5.784113803839543 1 0 0
522 174 1 0.5897 -9.903844130180783 2.0536804231879433 7.448387031616841 1 0 0
520 174 2 -1.1794 -10.63287675169176 2.436111102581844 7.936713724213017 1 0 0
97 33 2 -1.1794 -11.858755034242611 0.6537295738425595 5.504717991136724 1 0 0
430 144 2 -1.1794 -12.260973623585825 -2.32779519064111 8.220179066588262 1 0 0
435 145 1 0.5897 -7.139951494157071 -0.7128605988027719 9.668369732997538 0 0 0
425 142 1 0.5897 -7.3071170858472145 -1.2071190598666437 6.823468093600235 1 0 0
760 254 2 -1.1794 -8.643983262482433 1.6754328587575973 12.914503057965325 0 0 0
790 264 2 -1.1794 -10.663886717247617 0.2475140403211693 13.826544673042601 0 0 0
791 264 1 0.5897 -10.367347916127851 -0.47936246729750565 14.374134637413217 0 0 0
769 257 2 -1.1794 -12.333948082664719 2.7426352889157215 12.581904340277687 0 0 0
762 254 1 0.5897 -9.084094413489908 1.9617702386710274 12.114234602470972 0 0 0
761 254 1 0.5897 -9.320590788997485 1.2114510895146857 13.407637898956033 0 0 0
835 279 2 -1.1794 -11.094188500920456 -0.41459344592556846 11.075168400650464 1 0 0
792 264 1 0.5897 -11.43186149565561 0.5929722261078609 14.281601496751698 0 0 0
837 279 1 0.5897 -11.134850898548198 -0.155700722193993 11.995790720125205 1 0 0
770 257 1 0.5897 -11.95357900217094 3.130485162559621 13.370011837897785 0 0 0
896 299 1 0.5897 -7.647716612271352 2.8302808241794963 15.71694219003161 0 0 0
836 279 1 0.5897 -11.08079633122459 -1.37148536501509 11.095295499312309 1 0 0
771 257 1 0.5897 -11.67498481104539 2.884910128702124 11.902376280618713 0 0 0
897 299 1 0.5897 -7.627103833220899 2.426448356888635 14.258048361474085 0 0 0
786 262 1 0.5897 -7.123047825451061 0.782930061591264 12.847254458607862 0 0 0
865 289 2 -1.1794 -12.679017163691972 1.1238678261463129 15.501810077591584 0 0 0
888 296 1 0.5897 -10.407068372141996 3.1321870417130384 15.188949051764043 0 0 0
866 289 1 0.5897 -12.593294254461865 1.616422350824596 16.318070838816695 0 0 0
1235 412 1 0.5897 -8.973770607134512 -0.36905013514678586 20.301294868908172 0 0 0
1260 420 1 0.5897 -9.381683884868181 3.0558025196556677 19.984703587867585 0 0 0
1195 399 2 -1.1794 -9.279484947465972 2.115163272571534 16.70890518346797 0 0 0
1259 420 1 0.5897 -8.551926470652823 1.7995676055845706 19.826191493555427 0 0 0
1258 420 2 -1.1794 -8.66143437738259 2.6835736404074275 19.475884311335086 0 0 0
1236 412 1 0.5897 -7.495269732971755 -0.43426313346083845 20.61986464030049 0 0 0
1100 367 1 0.5897 -8.929512066565888 -0.9480867700663396 17.748487374495625 0 0 0
1101 367 1 0.5897 -9.811720863753136 -0.9712052934555739 16.518498191952133 0 0 0
1234 412 2 -1.1794 -8.220484198291391 0.18152684162961208 20.515014993422632 0 0 0
1246 416 2 -1.1794 -5.679724825108383 -1.28648260533771 20.216537012589228 0 0 0
1204 402 2 -1.1794 -11.626066581938765 0.5813308773784946 18.945752952260797 0 0 0
1216 406 2 -1.1794 -12.542537553730632 2.978395390069803 17.831132667216337 0 0 0
1099 367 2 -1.1794 -9.726237771369991 -0.5654278435550371 17.381205852510924 0 0 0
1011 337 1 0.5897 -11.662359508615983 4.0960906212066455 21.022970378580894 0 -1 0
1197 399 1 0.5897 -9.134104811736062 2.3439041572675965 17.62692061412703 0 0 0
1196 399 1 0.5897 -9.512443087618514 1.1868992443265682 16.726821300471528 0 0 0
1206 402 1 0.5897 -10.958913284311434 0.15336403928885822 18.409129257945892 0 0 0
1009 337 2 -1.1794 -10.818574449925055 3.7434328371841517 21.305411595691254 0 -1 0
1217 406 1 0.5897 -11.923052072706938 3.7060806171904126 17.776506222092735 0 0 0
1205 402 1 0.5897 -11.74093318540732 1.44254178804597 18.544124509700424 0 0 0
1251 417 1 0.5897 -11.128030598702821 1.8229329080697774 21.73198563784878 0 0 0
1249 417 2 -1.1794 -11.319325193268668 0.886243551256376 21.779569089038056 0 0 0
40 14 2 -1.1794 -15.553152014155614 4.079147538076606 1.7544777000397236 1 0 0
66 22 1 0.5897 -13.799548015775237 3.0435255082950974 1.458709398201159 1 0 0
176 59 1 0.5897 -14.385634969467144 4.857688011748355 4.729955496635353 1 0 0
167 56 1 0.5897 -17.07075889015138 6.373804938317322 2.873786830558414 1 0 0
65 22 1 0.5897 -12.332294691204673 3.2842197130866833 1.7433561872775352 1 0 0
64 22 2 -1.1794 -12.973016419365852 2.585493449320829 1.6109494825721236 1 0 0
177 59 1 0.5897 -14.121410139680293 4.482760578709092 3.2872123394452073 1 0 0
181 61 2 -1.1794 -11.290838974974807 3.2565562332667035 4.944676470935684 1 0 0
56 19 1 0.5897 -12.861675879488466 5.7781793676231015 1.4238768554934647 1 0 0
183 61 1 0.5897 -12.159545813309437 3.6285144374264107 4.79260932838435 1 0 0
162 54 1 0.5897 -14.767869956544041 7.05589781080187 2.332009253869072 1 0 0
191 64 1 0.5897 -12.569316220520669 6.571155387370517 4.367379829529498 1 0 0
86 29 1 0.5897 -10.751807891650767 4.950505632656183 2.2524702756527204 1 0 0
42 14 1 0.5897 -16.05918147641501 4.575480446803267 1.1112884359599564 1 0 0
108 36 1 0.5897 -10.271745859824666 2.4689127820809063 3.5857295447065853 1 0 0
175 59 2 -1.1794 -13.685742959713957 4.795864680911922 4.079907444958127 1 0 0
55 19 2 -1.1794 -13.463654754465669 6.3387573501742445 0.9345372357057331 1 0 0
190 64 2 -1.1794 -12.057981997646719 7.379966845863031 4.3916887916258736 1 0 0
43 15 2 -1.1794 -10.162168857190393 1.7599293326194942 0.3064852404943186 1 0 0
85 29 2 -1.1794 -11.227571213546245 4.829360942040523 1.430800945478292 1 0 0
106 36 2 -1.1794 -9.635063374350201 2.0548928864843212 3.0031133479479215 1 0 0
57 19 1 0.5897 -13.804062878203272 5.775894548740071 0.23917680559217327 1 0 0
45 15 1 0.5897 -9.882473523869319 1.8359753839492843 1.218712103237559 1 0 0
508 170 2 -1.1794 -13.343856666770034 6.334930015581552 7.18697397276363 1 0 0
538 180 2 -1.1794 -15.58395846477762 5.0348951142684655 8.026378987031457 1 0 0
510 170 1 0.5897 -13.683369393606892 7.037066438988436 6.632114040634553 1 0 0
509 170 1 0.5897 -14.098061378661095 6.05140230634348 7.703732846771657 1 0 0
543 181 1 0.5897 -10.321718260859514 6.282957368990129 9.62599480454714 0 0 0
644 215 1 0.5897 -12.52732824289364 7.160270280414682 10.044559030412486 1 0 0
636 212 1 0.5897 -15.192047267770866 7.750236436781343 9.82820240958345 1 0 0
521 174 1 0.5897 -10.589276002749068 3.3717363479014963 7.739423985667502 1 0 0
645 215 1 0.5897 -12.083806608955257 6.890913531047275 8.622366743415716 1 0 0
532 178 2 -1.1794 -10.967165873782056 5.056778318842682 7.0624016009928825 1 0 0
534 178 1 0.5897 -11.894403710254519 5.291457672432207 7.026291501958338 1 0 0
643 215 2 -1.1794 -11.813792889590447 7.32929643133782 9.429299266679667 1 0 0
459 153 1 0.5897 -9.991364127151812 3.992169981880803 10.874406387185275 0 0 0
457 153 2 -1.1794 -10.304916328582319 3.087787786262435 10.881001161063073 0 0 0
458 153 1 0.5897 -10.369886947077449 2.849537834286446 9.956215425202677 0 0 0
519 173 1 0.5897 -16.74655327861316 7.554381964307442 6.2821434055968925 1 0 0
533 178 1 0.5897 -10.50483961994355 5.881341856761866 6.9120127258318265 1 0 0
518 173 1 0.5897 -16.616402302128456 7.4531217426619705 7.786991048287448 1 0 0
539 180 1 0.5897 -15.243091697547964 4.222730824891443 8.401002068064008 1 0 0
182 61 1 0.5897 -10.906383869369296 3.813671863538822 5.621473398610603 1 0 0
900 300 1 0.5897 -14.300523050693059 7.755756502329483 14.078040303120988 0 0 0
898 300 2 -1.1794 -13.569223096395955 7.302167213564196 13.6589356068932 0 0 0
848 283 1 0.5897 -13.883570438903305 3.7008442443891916 12.035549011354378 1 0 0
886 296 2 -1.1794 -10.957489514015872 3.759817968076465 14.720734287010563 0 0 0
899 300 1 0.5897 -13.376664623771536 6.567761135470681 14.241792156212105 0 0 0
887 296 1 0.5897 -10.33883441111157 4.3772871522316805 14.330529072807204 0 0 0
874 292 2 -1.1794 -13.407867740777524 4.912382763968475 15.151868094351476 0 0 0
876 292 1 0.5897 -12.591514285901065 4.430699573347752 15.018793212264756 0 0 0
945 315 1 0.5897 -13.90766932761696 7.0129764389513625 11.85744030131795 1 0 0
869 290 1 0.5897 -12.299162753371238 8.506422881565069 13.248811982960685 0 0 0
875 292 1 0.5897 -14.094074558166577 4.251080937257942 15.062036703719084 0 0 0
944 315 1 0.5897 -14.290506905674116 5.8652139068627225 10.947463393668793 1 0 0
649 217 2 -1.1794 -15.475512868376434 8.350428198285087 15.35538809412858 0 -1 0
847 283 2 -1.1794 -14.598737056300909 4.218109851567771 11.66530665318943 1 0 0
965 322 1 0.5897 -15.928241206982811 8.223022242664769 12.18006091682605 1 0 0
650 217 1 0.5897 -15.267816008343633 8.936609783745254 16.08305906080404 0 -1 0
943 315 2 -1.1794 -14.037607680501502 6.788349056705272 10.936098109744135 1 0 0
990 330 1 0.5897 -14.149810509847594 7.519016849058218 18.455700791419574 0 -1 0
1208 403 1 0.5897 -12.076898499342203 6.548675094296126 17.528902299277583 0 0 0
1207 403 2 -1.1794 -12.879292484295886 6.9786724041836266 17.23333540248904 0 0 0
1034 345 1 0.5897 -14.574590968335041 7.89889268083985 20.646362402637784 0 -1 0
1018 340 2 -1.1794 -11.419069514129855 7.393246143579276 20.272057180087373 0 -1 0
1019 340 1 0.5897 -12.00004996454663 6.634428627053714 20.217868762712747 0 -1 0
1020 340 1 0.5897 -10.537379943640852 7.024892018404774 20.21644114444367 0 -1 0
1030 344 2 -1.1794 -8.913346843650729 6.0931869982988935 20.056182924132635 0 -1 0
989 330 1 0.5897 -15.037981943587205 8.742135451932118 18.538343129823602 0 -1 0
1033 345 2 -1.1794 -14.462371969820007 8.040266850271227 21.586376507023076 0 -1 0
1003 335 2 -1.1794 -13.273094860578897 5.00098782170625 20.536294289192874 0 -1 0
1238 413 1 0.5897 -10.249916564344128 5.698505853400571 18.538905199665216 0 0 0
1239 413 1 0.5897 -10.211761383427277 5.065158901894449 17.16437827538377 0 0 0
1237 413 2 -1.1794 -10.75311189954218 5.135473420413851 17.950657118759963 0 0 0
1032 344 1 0.5897 -8.650783115413459 5.4860242773739785 20.7479560666344 0 -1 0
1043 348 1 0.5897 -11.958392255732743 9.087816436300013 19.910089426864182 0 -1 0
1035 345 1 0.5897 -14.389002052851442 8.990139544228064 21.679177509078578 0 -1 0
980 327 1 0.5897 -12.340867294278928 8.646198364341238 16.439466344604362 0 -1 0
1209 403 1 0.5897 -13.239645020347215 6.386569385280822 16.57318584279733 0 0 0
988 330 2 -1.1794 -14.866676060990674 7.901094539929979 18.9619816091409 0 -1 0
1229 410 1 0.5897 -7.6319550635604285 3.9978192751558623 18.762777944999414 0 0 0
174 58 1 0.5897 -16.55710430428592 10.435109168388507 1.2125996992639165 1 0 0
173 58 1 0.5897 -15.098750455457786 10.613689005564243 1.5774029954016113 1 0 0
172 58 2 -1.1794 -15.735936530738057 9.952513921054177 1.307016352092229 1 0 0
161 54 1 0.5897 -15.625686527942719 8.297158858298367 2.209079228953482 1 0 0
215 72 1 0.5897 -12.772541164485938 8.881582792832859 3.5230950527672085 1 0 0
214 72 2 -1.1794 -13.003911638898455 9.76311113439278 3.230610242081875 1 0 0
148 50 2 -1.1794 -18.681357388416043 11.060224993350054 1.267718918351839 1 0 0
285 95 1 0.5897 -17.397475252660854 11.720093479588389 2.760448390209145 1 0 0
150 50 1 0.5897 -19.010534491365803 11.696750696639757 0.6332033229369993 1 0 0
291 97 1 0.5897 -15.786375264323265 11.276659015519751 4.6171470425994485 1 0 0
289 97 2 -1.1794 -15.093976861394028 10.726325711245053 4.982966187556225 1 0 0
152 51 1 0.5897 -12.756217776356008 8.080432485299866 0.7419225676443465 1 0 0
284 95 1 0.5897 -17.76317937327029 12.086647881477997 4.183047573545404 1 0 0
283 95 2 -1.1794 -17.02762046027896 12.070597812483761 3.5707366070351707 1 0 0
216 72 1 0.5897 -13.786550426829002 9.985528820318251 3.7348144684454967 1 0 0
160 54 2 -1.1794 -15.54255003047883 7.4801915429566534 2.70084122251124 1 0 0
193 65 2 -1.1794 -14.27015275008879 12.22968755747787 1.4110941612824706 1 0 0
206 69 1 0.5897 -15.051683666990346 7.776776829174604 4.36719330027892 1 0 0
194 65 1 0.5897 -13.96182177682194 12.468023429680056 2.2853536605044336 1 0 0
1118 373 1 0.5897 -16.36279037055353 8.611218662677082 0.03682662486883143 0 -1 1
153 51 1 0.5897 -12.862428217256898 9.438825047122858 1.4017692342641224 1 0 0
205 69 2 -1.1794 -15.175071124144576 8.076669299436922 5.267789392861328 1 0 0
207 69 1 0.5897 -15.397028926257725 9.003951063087673 5.183705111925736 1 0 0
583 195 2 -1.1794 -19.02784337812121 11.941076326147279 5.404526907640171 1 0 0
565 189 2 -1.1794 -13.088323686939027 10.28443587226334 10.901809867739535 0 0 0
635 212 1 0.5897 -14.893440742456729 8.66731462332108 8.661308687944354 1 0 0
566 189 1 0.5897 -13.183711518694698 9.8842742963779 10.037515009162552 0 0 0
630 210 1 0.5897 -12.76969220230865 9.558256917858348 7.567449185937838 1 0 0
629 210 1 0.5897 -13.656227574751679 10.768534949420193 7.76998130019365 1 0 0
628 210 2 -1.1794 -13.418170735551856 9.929989547559316 8.165368562846725 1 0 0
567 189 1 0.5897 -13.243587305226532 11.217124567252576 10.752953737270403 0 0 0
640 214 2 -1.1794 -14.182993570097286 12.465009249854944 6.9323722391955105 1 0 0
634 212 2 -1.1794 -15.599540822691145 8.164927102589282 9.067869985100163 1 0 0
642 214 1 0.5897 -15.003236945562836 12.938342465528933 6.79354924881486 1 0 0
325 109 2 -1.1794 -12.998210716798983 12.929997064671237 10.138377656840431 0 -1 0
327 109 1 0.5897 -13.77203891344666 13.423595138565595 9.867032260665491 0 -1 0
617 206 1 0.5897 -17.06594966949211 13.14892881364397 7.619972223173067 1 0 0
624 208 1 0.5897 -17.126759455894685 9.562231910079646 9.208403013420769 1 0 0
641 214 1 0.5897 -13.500060089821869 13.11704127319987 6.77511611392927 1 0 0
585 195 1 0.5897 -18.956509206721055 12.223104609466887 6.3164406223245155 1 0 0
290 97 1 0.5897 -14.630453522688729 11.298620157473824 5.594399079244738 1 0 0
525 175 1 0.5897 -11.673454130322456 8.346248777685858 6.055681891483872 1 0 0
646 216 2 -1.1794 -18.510656908170155 12.221541817289328 8.31413142415896 1 0 0
879 293 1 0.5897 -14.588427135982396 10.008149687247183 11.900489394869625 0 0 0
870 290 1 0.5897 -11.765419754375964 9.454385119865734 12.196015246337396 0 0 0
877 293 2 -1.1794 -15.389852130394104 9.983216465821286 12.423299353319539 0 0 0
658 220 2 -1.1794 -16.417981048901403 12.010264607917605 14.73301715968148 0 -1 0
672 224 1 0.5897 -13.511530423497845 10.487874634522864 15.234766566478816 0 -1 0
671 224 1 0.5897 -13.04158365362215 11.606217090971093 14.32903881675482 0 -1 0
670 224 2 -1.1794 -13.788666818220351 11.03205486928438 14.497746443453089 0 -1 0
660 220 1 0.5897 -15.602644895588902 11.51051002283181 14.693076611339743 0 -1 0
956 319 1 0.5897 -16.579208554962648 11.224406840221668 12.015160447374752 1 0 0
878 293 1 0.5897 -15.103240486886857 10.193245843315893 13.312085338871373 0 0 0
868 290 2 -1.1794 -11.48430437770002 8.855447833339227 12.887663137469268 0 0 0
683 228 1 0.5897 -16.418116492525538 13.801113295237858 14.077881673119368 0 -1 0
680 227 1 0.5897 -10.628856038204237 9.846777321946838 15.704866007693044 0 -1 0
659 220 1 0.5897 -17.104977283258144 11.36119547766096 14.581322676687366 0 -1 0
728 243 1 0.5897 -17.56724582921065 13.396602969925393 11.247561428228996 1 -1 0
955 319 2 -1.1794 -17.38181279313602 11.61752013278566 11.672526502698258 1 0 0
957 319 1 0.5897 -17.68227015908585 11.003985198546932 11.002041451941423 1 0 0
1022 341 1 0.5897 -13.105539080603366 12.476620727905363 18.85504246814223 0 -1 0
1140 380 1 0.5897 -11.49320930088526 12.917132579132591 21.03214324945324 0 -1 0
992 331 1 0.5897 -15.08563372193045 13.408215785211162 17.60358250401582 0 -1 0
1117 373 2 -1.1794 -14.29730499598715 10.818252618733826 21.24118445490553 0 -1 0
1119 373 1 0.5897 -15.062961705893953 11.291858351609982 20.916263006140603 0 -1 0
1138 380 2 -1.1794 -11.95703419508075 13.412263720574689 20.35699661947227 0 -1 0
991 331 2 -1.1794 -15.824809948798658 13.838861987231052 17.17433283138476 0 -1 0
1111 371 2 -1.1794 -16.329549669286905 12.502905020995616 20.184241511241922 0 -1 0
1127 376 1 0.5897 -15.179194446589786 13.937970775971063 20.322863403482124 0 -1 0
981 327 1 0.5897 -12.198636207249411 9.619157903393017 17.590580121068854 0 -1 0
1023 341 1 0.5897 -12.789687561869956 12.747068553669301 17.399383799336746 0 -1 0
1000 334 2 -1.1794 -15.245322184629767 10.203711371366829 17.442632190205423 0 -1 0
1042 348 2 -1.1794 -12.248865242352903 9.935988424020973 19.574843236452075 0 -1 0
1044 348 1 0.5897 -12.820572703014687 10.281902824756415 20.26020798703729 0 -1 0
1013 338 1 0.5897 -10.717255330058034 10.611347019549228 18.643574866601128 0 -1 0
1021 341 2 -1.1794 -13.513116257378977 12.541122249140127 17.991402157070944 0 -1 0
1128 376 1 0.5897 -13.67425166144034 14.094607527917933 20.273862841887954 0 -1 0
1001 334 1 0.5897 -14.61741694415482 10.893651836500116 17.657083560784606 0 -1 0
979 327 2 -1.1794 -12.230327042081978 9.576708576121796 16.634861911632434 0 -1 0
1126 376 2 -1.1794 -14.48564993063752 14.597346720718768 20.34481398510085 0 -1 0
1113 371 1 0.5897 -16.75306170645659 12.260096748529993 19.360916633548165 0 -1 0
1002 334 1 0.5897 -16.070344614534946 10.502818310820707 17.824826848884435 0 -1 0
1098 366 1 0.5897 -17.324816844951876 14.245604437864039 18.29674951083736 0 -1 0
993 331 1 0.5897 -16.01848517332882 13.285550959946466 16.417640436935557 0 -1 0
3 1 1 0.5897 -1.356844939227674 -3.554024588074797 4.258996683618933 0 0 0
318 106 1 0.5897 -3.0201026398911983 -4.24161825540761 1.2973391602176303 1 1 0
305 102 1 0.5897 -1.3516467438181934 -5.9926765145616026 2.3493427118984678 1 1 0
304 102 2 -1.1794 -1.2945356993675023 -6.940031278297292 2.473727551566986 1 1 0
316 106 2 -1.1794 -2.1279671749434623 -4.565724382636485 1.4204860007487503 1 1 0
242 81 1 0.5897 -1.1178067717293256 -6.885495889800332 4.340686544952631 0 1 0
306 102 1 0.5897 -0.8132215859032179 -7.254001164028649 1.7082270620537583 1 1 0
311 104 1 0.5897 -2.907611411263896 -8.116567085607757 3.0358344722207025 1 1 0
243 81 1 0.5897 -0.5900479217186962 -5.740446488831656 5.178727315229658 0 1 0
310 104 2 -1.1794 -3.6183052242924987 -8.31536952801516 3.645441935654322 1 1 0
317 106 1 0.5897 -1.5719549685239773 -3.8012341650161012 1.2699289518976022 1 1 0
241 81 2 -1.1794 -0.9103501283263533 -6.640236632564756 5.242363087713989 0 1 0
293 98 1 0.5897 -5.379304673146824 -3.8142293389238464 2.0557442401866437 1 1 0
199 67 2 -1.1794 0.4273502865813068 -8.042641921761325 0.5405030344217574 1 1 0
348 116 1 0.5897 -1.3486830357402795 -6.68680122475609 9.751455323485676 0 0 0
347 116 1 0.5897 -0.923548229932603 -5.655410782543124 8.72804576146297 0 0 0
346 116 2 -1.1794 -1.6942261720177818 -6.105454065391698 9.074135716864072 0 0 0
336 112 1 0.5897 -3.326235762246415 -5.156617851586503 9.689853647043154 0 0 0
546 182 1 0.5897 -0.21255131825619955 -7.791122726906279 6.670140301145369 0 1 0
334 112 2 -1.1794 -4.164390227614543 -4.768613623739016 9.941095941526843 0 0 0
357 119 1 0.5897 1.4360403056579027 -7.675522927545979 8.562762423389179 0 0 0
555 185 1 0.5897 -2.477252147470999 -6.701534542304259 6.159930334137329 0 1 0
554 185 1 0.5897 -2.7145870048825778 -6.640635939799676 7.653860213330009 0 1 0
335 112 1 0.5897 -4.78735403328109 -5.494067978546262 9.897493683369136 0 0 0
553 185 2 -1.1794 -3.147326833814157 -6.852106166308678 6.826691442658789 0 1 0
632 211 1 0.5897 -4.677688168745778 -5.8858058965692415 6.744501260555013 1 1 0
359 120 1 0.5897 -4.250895045676513 -3.174481839720599 8.76880753575148 0 0 0
404 135 1 0.5897 -5.335979531803817 -3.9653896214245288 5.712984188417194 1 0 0
356 119 1 0.5897 1.268088369588174 -7.285505964648029 10.015880873332637 0 0 0
386 129 1 0.5897 0.42930479533028 -4.307257281013122 9.861260008171957 0 0 0
544 182 2 -1.1794 0.22398263090301818 -8.37097034176331 7.2941003508376925 0 1 0
657 219 1 0.5897 -0.2399476655632462 -7.176598083113356 11.881727846469452 0 0 0
718 240 2 -1.1794 0.4074145642292155 -7.204097270392047 13.624055283678842 0 0 0
802 268 2 -1.1794 -2.401773460278516 -2.248548201345967 15.084044302524093 0 0 0
795 265 1 0.5897 -2.061655704400078 -5.640142881123133 15.397270814181129 0 0 0
804 268 1 0.5897 -1.5104714262083245 -2.5923079310047035 15.024804398325742 0 0 0