LAMMPS data file via write_data, version 30 Jul 2021, timestep = 39500000

1008 atoms
2 atom types
672 bonds
1 bond types
336 angles
1 angle types

-3.0990081609681663 14.709007160518714 xlo xhi
-0.01370061841979009 22.593699618414355 ylo yhi
0.07622071615341319 19.15377728383993 zlo zhi
-0.15320452285398692 -6.570423602806672 0.1679592278654105 xy xz yz

Masses

1 1.008
2 15.999

Pair Coeffs # lj/cut/tip4p/long/omp

1 0 0
2 0.21084 3.1668

Bond Coeffs # harmonic/omp

1 450 0.9572

Angle Coeffs # harmonic/omp

1 55 104.52

Atoms # full

55 19 2 -1.1794 -0.7836735586932297 4.2632829099526806 3.585825502571161 0 0 0
56 19 1 0.5897 -1.3162947309382904 3.6880253384086914 3.0365855162283357 0 0 0
57 19 1 0.5897 0.006316122869685081 4.423961450643348 3.0696049484204555 0 0 0
121 41 2 -1.1794 -2.4363898616796957 2.282295431466607 2.4845212382242208 1 0 0
122 41 1 0.5897 -2.2486051152366073 2.0438156953114905 1.576605657150463 1 0 0
21 7 1 0.5897 1.1595155165473248 2.194151051158828 1.0415866304521249 0 0 0
31 11 2 -1.1794 1.2889348341032418 1.1017701137341807 2.497612932973315 0 0 0
86 29 1 0.5897 -2.1710569903248746 1.5503009743532408 4.087525123906337 1 0 0
32 11 1 0.5897 1.0963312107121235 1.4199995524197517 3.3796946856551298 0 0 0
46 16 2 -1.1794 1.5957631593786905 4.726623705625098 2.490766548057009 0 0 0
48 16 1 0.5897 1.8359265938887095 5.383897685127299 3.1439315002779162 0 0 0
70 24 2 -1.1794 3.932633423226095 0.6565232994194532 1.6183158686035943 0 0 0
669 223 1 0.5897 -5.090609509181094 1.7335158153553036 8.950666523770119 1 0 0
71 24 1 0.5897 3.095866814697115 0.746736989374053 2.0744082823714574 0 0 0
68 23 1 0.5897 -3.198689468600083 0.11656451897448242 7.992060314209084 0 0 0
123 41 1 0.5897 -3.3422239745661133 2.591250942042206 2.469087240446111 1 0 0
47 16 1 0.5897 1.7484081074850897 5.157204520195478 1.6495000365306056 0 0 0
54 18 1 0.5897 2.9998263771297538 3.5806358026466847 3.064889856485856 0 0 0
402 134 1 0.5897 1.2798057016840936 0.0713508637680966 7.8171176567451655 0 1 0
401 134 1 0.5897 2.3704115786956033 0.29098330228807934 8.843927985262207 0 1 0
602 201 1 0.5897 -0.5932643244683335 5.346418624035366 0.3799298970018202 1 0 1
52 18 2 -1.1794 3.694001025758274 3.1756101499665914 3.5848037393805368 0 0 0
158 53 1 0.5897 -4.155198752353999 4.41347032525005 4.443358814827442 1 0 0
33 11 1 0.5897 0.5856780464401066 0.48079209776349513 2.307673732980233 0 0 0
44 15 1 0.5897 -0.14435331843158927 5.578213352073636 8.019109086199219 0 0 0
124 42 2 -1.1794 -4.7078296816419485 2.4511314443960583 7.3301337037716285 1 0 0
6 2 1 0.5897 3.587097818161917 1.7052036749101633 4.733468805817016 0 0 0
159 53 1 0.5897 -3.071223105541528 4.351857873866582 5.498428477757877 1 0 0
87 29 1 0.5897 -3.178951639787247 1.0584717606078269 5.104690101818773 1 0 0
85 29 2 -1.1794 -2.2449927372682064 1.2324310401158685 4.987491184541964 1 0 0
45 15 1 0.5897 0.6721272536489242 4.807599693048274 7.003364624004429 0 0 0
78 26 1 0.5897 0.11898227517128213 3.006945983805247 4.6338254650986554 0 0 0
76 26 2 -1.1794 0.8380495897195805 2.409004570608045 4.837832607279303 0 0 0
59 20 1 0.5897 1.9411330064006531 3.538620826976269 5.773841065892948 0 0 0
43 15 2 -1.1794 -0.1882407455488737 5.204666260760806 7.138802664063469 0 0 0
60 20 1 0.5897 2.9664868961877637 3.9183612477565233 6.8209577628163585 0 0 0
34 12 2 -1.1794 0.06617004172372631 1.2452067374675997 7.272922482603517 0 0 0
35 12 1 0.5897 0.2585203266243097 1.9172840037371586 7.926855042426697 0 0 0
36 12 1 0.5897 -0.7619173853999968 0.8606613277484462 7.560519877813161 0 0 0
5 2 1 0.5897 3.288774218395508 0.2661325284057877 5.096935135999125 0 0 0
67 23 2 -1.1794 -2.3483261343126163 0.44727438935354336 8.281437901657117 0 0 0
157 53 2 -1.1794 -3.6073894544513254 4.967842528663124 4.999092610883719 1 0 0
58 20 2 -1.1794 2.2291581438692365 4.2690567888363615 6.32137339774878 0 0 0
90 30 1 0.5897 -4.963664249773675 1.5404047979209108 5.816283143500169 1 0 0
4 2 2 -1.1794 3.809115213260452 1.0228157913897205 5.3670083806236795 0 0 0
135 45 1 0.5897 -1.4481959861312075 4.001520534487299 6.851034448002502 1 0 0
126 42 1 0.5897 -3.852723168190419 2.876778708348478 7.2677075102933 1 0 0
77 26 1 0.5897 0.531470882585428 1.9158002775856138 5.598877778083298 0 0 0
134 45 1 0.5897 -1.8947201516964123 2.703824325561775 6.211815154196049 1 0 0
133 45 2 -1.1794 -2.2205708741651455 3.454319616737684 6.708684547253953 1 0 0
69 23 1 0.5897 -2.559686277143074 1.1868213751284207 8.851270361773933 0 0 0
53 18 1 0.5897 4.449208254099112 3.1486553671169473 2.997161777739914 0 0 0
98 33 1 0.5897 -3.9847772867242988 5.128835266917119 8.656736370672462 1 0 0
527 176 1 0.5897 4.080624179793831 2.0451448291079677 0.48141815122145765 0 0 1
522 174 1 0.5897 2.165167198583676 5.500206436954507 9.205341509665471 0 0 0
101 34 1 0.5897 -2.5721460304172155 4.556528723192714 0.20548266764040127 1 0 0
16 6 2 -1.1794 5.517271780253845 4.9322583998294025 0.26420358228435287 0 0 0
482 161 1 0.5897 -1.1228143373534234 0.12724616404666836 1.008727226480712 1 1 0
18 6 1 0.5897 5.061670262061535 4.10134837458119 0.1289976936955428 0 0 0
97 33 2 -1.1794 -4.168221637940106 4.718483640363071 9.501960861336887 1 0 0
125 42 1 0.5897 -5.338503347930047 3.1596941330530606 7.202055943242608 1 0 0
114 38 1 0.5897 -3.408422718926325 5.639160219546258 1.9655489926164402 1 0 0
19 7 2 -1.1794 1.1916444183581323 2.6874457920560753 0.22180537786225055 0 0 0
22 8 2 -1.1794 0.2564279162898129 2.921567618901231 9.531016195764398 0 0 0
591 197 1 0.5897 -4.785304022472992 0.4934207268467994 14.394246461384817 1 0 0
626 209 1 0.5897 -5.621959693997335 2.0729891383166104 12.695591440703717 1 0 0
23 8 1 0.5897 0.53542984880854 2.2065341651028993 10.103010287828347 0 0 0
99 33 1 0.5897 -3.9491006213844084 5.390360517514413 10.147619319377453 1 0 0
536 179 1 0.5897 -2.174793724206756 1.5394339384686846 13.116472399584113 0 0 0
603 201 1 0.5897 -6.678423907296068 4.118268596323792 19.129873923587958 1 0 0
576 192 1 0.5897 -0.12377163972646876 0.883664177710733 11.838779605031743 0 0 0
628 210 2 -1.1794 -7.943650778438018 2.6077219258753606 16.68731959393034 1 0 0
535 179 2 -1.1794 -2.0785387874290997 1.0746991078511794 12.285115507949046 0 0 0
525 175 1 0.5897 -1.5403572550706865 2.933419291709561 9.740698769501378 0 0 0
537 179 1 0.5897 -2.2208908351169154 1.7454838676915523 11.617191288885547 0 0 0
561 187 1 0.5897 -3.4976758171273614 3.8423711200670074 13.688334215289473 0 0 0
163 55 2 -1.1794 -8.52819279601827 1.5441848257035407 19.030601837481584 1 0 -1
164 55 1 0.5897 -8.236637608927264 1.9919808664999668 18.23630383581976 1 0 -1
627 209 1 0.5897 -6.6445947250755655 3.0055965650829872 12.082129514076186 1 0 0
557 186 1 0.5897 0.3287153026249996 2.8747019449562266 13.427772465518665 0 0 0
558 186 1 0.5897 -0.2353583517157487 4.018625361977023 12.612146450703444 0 0 0
559 187 2 -1.1794 -3.973800328207507 4.5227470088343145 13.21226574755681 0 0 0
560 187 1 0.5897 -4.595995403562558 4.04261831360034 12.66580591940268 0 0 0
625 209 2 -1.1794 -5.736197207834226 2.716372582754704 11.996053648972424 1 0 0
668 223 1 0.5897 -5.5034246608847734 1.7642371220777058 10.407076248428893 1 0 0
556 186 2 -1.1794 0.5883434519674768 3.65314573260207 12.934858973943783 0 0 0
580 194 2 -1.1794 -2.3385685801902794 2.762247109061836 14.50897803754544 0 0 0
552 184 1 0.5897 -2.446747818151808 4.9595379473622065 12.387019074043643 0 0 0
589 197 2 -1.1794 -5.383967051674476 1.2241757282658177 14.239940042079835 1 0 0
550 184 2 -1.1794 -1.547770951235159 5.1384439725175275 12.111078125007797 0 0 0
587 196 1 0.5897 -1.0044347441486265 5.589992966889204 10.464231703168986 0 0 0
24 8 1 0.5897 0.8767026302006382 3.6282555709145305 9.710222342759012 0 0 0
630 210 1 0.5897 -8.123540136158756 1.9087202977772508 16.058550191154794 1 0 0
582 194 1 0.5897 -1.7429457557101733 3.379482278954924 14.933833096155984 0 0 0
523 175 2 -1.1794 -2.4198716436406156 2.610387967926729 9.936677983816454 0 0 0
547 183 2 -1.1794 -3.5275311793556767 5.0856292925938495 16.996110303846436 0 0 0
639 213 1 0.5897 -5.6653502040851995 4.092986207177706 15.392005013795341 1 0 0
538 180 2 -1.1794 -3.094938119551376 1.3015574721970662 16.835366970402646 0 0 0
540 180 1 0.5897 -4.005116853783826 1.0301781687300349 16.954591891859785 0 0 0
629 210 1 0.5897 -8.634921663534413 3.2518874956101316 16.534322601978893 1 0 0
539 180 1 0.5897 -2.9264947224549545 1.9019773631401482 17.561626848415173 0 0 0
638 213 1 0.5897 -6.2074721913010364 3.054993253907316 16.351669654985514 1 0 0
549 183 1 0.5897 -4.153911043742015 4.418089531989897 16.716288970563596 0 0 0
562 188 2 -1.1794 -0.870190682388011 4.313222127431229 16.052011109061855 0 0 0
601 201 2 -1.1794 -7.360472232125659 4.753287561317938 18.911305158961255 1 0 0
564 188 1 0.5897 -1.6719230735620458 4.547270988845788 16.51974800234506 0 0 0
593 198 1 0.5897 -7.363311742007953 0.7994908641698838 14.252851811450322 1 0 0
520 174 2 -1.1794 2.308345452796525 4.806569387421269 9.849310124323335 0 0 0
637 213 2 -1.1794 -5.391680590379497 3.384169195719107 15.974222473866249 1 0 0
663 221 1 0.5897 -7.453794460603875 4.5667691696191355 14.104029819536155 1 0 0
581 194 1 0.5897 -2.6000233868764493 2.161816654148776 15.207204628439078 0 0 0
590 197 1 0.5897 -5.179683645680248 1.8522091424690117 14.932879791847787 1 0 0
563 188 1 0.5897 -0.6730686153492593 5.080471883372155 15.514588593370547 0 0 0
667 223 2 -1.1794 -5.411258311904083 1.1745876680726248 9.658622279524543 1 0 0
20 7 1 0.5897 -5.51158771294549 2.196813903610035 18.617503649295273 0 0 -1
661 221 2 -1.1794 -6.93096907961886 5.234648320898473 14.547720402181342 1 0 0
574 192 2 -1.1794 0.5196880325336211 0.7570843318505115 11.141397531732567 0 0 0
571 191 2 -1.1794 -5.570404996147884 0.6027370707728381 17.695300923125686 0 0 0
165 55 1 0.5897 -9.243396349478004 0.9789422716984675 18.73863937637693 1 0 -1
508 170 2 -1.1794 0.6116673612615946 1.2456790238392705 14.487425204751684 0 0 0
524 175 1 0.5897 -2.984240851310496 3.3774778217117465 9.840352332624139 0 0 0
526 176 2 -1.1794 -2.579689644923583 2.9674850089277367 18.97660710796731 0 0 0
551 184 1 0.5897 -1.1846247791039497 5.679230420826489 12.812495495276982 0 0 0
528 176 1 0.5897 -3.512657008722732 3.180055816924328 19.00162859315064 0 0 0
986 329 1 0.5897 -4.42844272418694 0.0845681498469218 10.672114355201531 1 1 0
575 192 1 0.5897 1.2193509593559124 0.24758348103437178 11.550151262263547 0 0 0
84 28 1 0.5897 -3.8935692738180085 5.749250154286734 18.635444902860883 0 0 -1
606 202 1 0.5897 -6.0754158583826685 4.6134311424815415 9.779713419351031 1 0 0
289 97 2 -1.1794 -2.7292358661231764 10.100247808421813 2.6079649293028973 1 0 0
332 111 1 0.5897 -2.2878055951661125 9.390189135366386 1.045816628167525 1 0 0
255 85 1 0.5897 -2.4284095887771957 9.140385863584001 4.074738542641173 1 0 0
147 49 1 0.5897 -0.984299559832134 7.5885335316828355 1.0147527400614442 1 0 0
146 49 1 0.5897 -1.2821242613252415 6.522065162036281 2.0473288977142827 1 0 0
145 49 2 -1.1794 -0.604339814144994 6.820016274135167 1.4404988619274244 1 0 0
174 58 1 0.5897 3.615064392157331 9.184200790677073 4.47438551425149 0 0 0
112 38 2 -1.1794 -3.075239947813806 6.285412257108871 2.5881645134911606 1 0 0
65 22 1 0.5897 2.554999700205994 7.639617184099134 8.741381801999244 0 0 0
172 58 2 -1.1794 3.8222216147381065 8.46898579769531 5.07593456106714 0 0 0
303 101 1 0.5897 -1.5190732699902805 11.340606563522392 6.909635056372473 1 0 0
9 3 1 0.5897 -0.7475312881939864 5.887696275777696 4.35349492337242 0 0 0
201 67 1 0.5897 1.997179982268178 8.316766487606582 2.46000951076302 0 0 0
188 63 1 0.5897 0.6572118867522878 9.900246381943711 1.137514663314047 0 0 0
200 67 1 0.5897 0.5369286726264653 7.941439768114455 2.323101611717328 0 0 0
258 86 1 0.5897 -5.1863324096077985 9.275899037636858 6.135234071422501 1 0 0
199 67 2 -1.1794 1.1132066593592533 8.637404844217913 2.6390027702304835 0 0 0
239 80 1 0.5897 3.76642760864022 8.71195506982661 1.1975320568998256 0 0 0
238 80 2 -1.1794 3.669185034091263 7.942437582118245 1.7585413675475488 0 0 0
173 58 1 0.5897 3.269144360581012 7.743586816510686 4.785821878531213 0 0 0
10 4 2 -1.1794 2.063582814218549 6.430471567858693 4.529580998435881 0 0 0
240 80 1 0.5897 3.211125236909327 7.303617012774404 1.2123049444026945 0 0 0
245 82 1 0.5897 0.6589721336192707 9.619827448177507 4.073327093124059 0 0 0
221 74 1 0.5897 4.34550009696768 10.732447651496424 2.9699694906831873 0 0 0
291 97 1 0.5897 -3.6200659037459815 10.386778165059217 2.809422289007924 1 0 0
187 63 2 -1.1794 0.8001029941909397 10.416260942541598 0.3439572999142887 0 0 0
12 4 1 0.5897 1.1422115751777415 6.6611756205785735 4.648302276857415 0 0 0
331 111 2 -1.1794 -1.8731308208028108 8.903028602477873 0.33370896775909487 1 0 0
110 37 1 0.5897 -3.9628258753158114 5.877708439647003 6.492592735011095 1 0 0
301 101 2 -1.1794 -2.310374750877486 10.87212921667852 6.643895026436738 1 0 0
113 38 1 0.5897 -3.2041795855947592 5.880873247524761 3.4461617019638613 1 0 0
8 3 1 0.5897 -0.5235385800312473 6.413623096749864 5.755469228756174 0 0 0
254 85 1 0.5897 -1.883254061651862 7.923901916139757 4.792335398243679 1 0 0
253 85 2 -1.1794 -2.4299576463553607 8.698513460762245 4.923952056707834 1 0 0
302 101 1 0.5897 -1.9901365764915764 10.138982867233526 6.118299343104809 1 0 0
244 82 2 -1.1794 0.606914312039772 10.227522261275457 4.81113265470503 0 0 0
220 74 2 -1.1794 3.5440084902119935 10.782114491020462 3.4910423109079414 0 0 0
294 98 1 0.5897 -4.974415849643105 9.843487107562623 8.297535733867441 1 0 0
109 37 2 -1.1794 -4.0858123580398615 6.412110189389814 7.277240545808585 1 0 0
7 3 2 -1.1794 -0.6063700247875814 6.696987301521009 4.84482770885972 0 0 0
64 22 2 -1.1794 2.233394159532856 6.935995055790362 8.177663993125607 0 0 0
237 79 1 0.5897 -2.3605885984463892 8.668546510670113 8.739507210059376 0 0 0
257 86 1 0.5897 -4.238019236350128 8.571751619297281 5.188081909804851 1 0 0
290 97 1 0.5897 -2.189403882938721 10.878156083194142 2.7483137320035826 1 0 0
292 98 2 -1.1794 -4.915541050618545 10.419883162425887 7.535504087893757 1 0 0
191 64 1 0.5897 0.4799220185037121 9.905742291800303 8.677683362264858 0 0 0
293 98 1 0.5897 -3.9760782860336716 10.51547663642085 7.378797725261415 1 0 0
202 68 2 -1.1794 0.38218093697685207 8.836659778129926 7.1607230172268554 0 0 0
203 68 1 0.5897 -0.43624825666659506 8.435625728835934 7.453430352070631 0 0 0
204 68 1 0.5897 1.046668792656435 8.164845145320825 7.313478237456099 0 0 0
246 82 1 0.5897 0.4609025079611202 9.667471331370466 5.573651040077535 0 0 0
235 79 2 -1.1794 -2.009423184515525 7.9177655002080485 8.2606423104893 0 0 0
236 79 1 0.5897 -2.7719686145403966 7.5275737648577135 7.833411050582612 0 0 0
111 37 1 0.5897 -5.016148430544511 6.637211176610021 7.2709263031077525 1 0 0
694 232 2 -1.1794 3.5979280184674884 10.383228577900786 0.35804375927822807 0 0 1
66 22 1 0.5897 2.996175685726115 6.673777876898121 7.662155169927921 0 0 0
696 232 1 0.5897 4.276254845189056 11.053804927383132 0.43842211761982747 0 0 1
837 279 1 0.5897 -5.972170039324993 8.237460452729449 9.204006323432674 1 0 0
588 196 1 0.5897 -1.2852412211268374 6.579762137012764 9.35352751735612 0 0 0
222 74 1 0.5897 2.9241525860596393 11.252374810376917 2.9334788992722776 0 0 0
189 63 1 0.5897 1.73865572820913 10.604335602127813 0.3456739294583373 0 0 0
228 76 1 0.5897 1.723322642124784 11.20722669665581 5.697724016109944 0 0 0
11 4 1 0.5897 2.225153502707025 5.746098810292692 5.179083706189624 0 0 0
190 64 2 -1.1794 0.24065454486073712 10.227273593591729 9.547049982727033 0 0 0
82 28 2 -1.1794 2.2852967334941408 6.130995932656701 0.2367673238857796 0 0 0
192 64 1 0.5897 0.8606232573234847 10.93582483145745 9.71984233948053 0 0 0
798 266 1 0.5897 -8.19983589031493 9.724979401884214 16.369348054007325 1 0 0
759 253 1 0.5897 -5.703383516841529 8.95801972422059 13.482578317819883 1 0 0
651 217 1 0.5897 -4.676931627548619 6.9868456242310035 11.576016165140226 1 0 0
617 206 1 0.5897 -7.0048507604015535 7.254114146324301 12.137359991497108 1 0 0
797 266 1 0.5897 -7.060462498217097 10.615576488773815 16.81725788096231 1 0 0
795 265 1 0.5897 -5.695224772159868 9.728614632007275 11.181428570751194 1 0 0
693 231 1 0.5897 -2.4799572939561414 9.670532219204022 10.638492333146774 0 0 0
649 217 2 -1.1794 -3.850995722725294 7.030341856186396 11.094041123457925 1 0 0
650 217 1 0.5897 -3.259811441344468 7.510429372305867 11.6739495924802 1 0 0
742 248 2 -1.1794 0.4063922962097992 8.08091492518872 11.274311143847866 0 0 0
793 265 2 -1.1794 -5.942488278599275 10.098134462966865 12.029214999090042 1 0 0
743 248 1 0.5897 0.4784297905227004 8.836054677170539 10.690426172507706 0 0 0
744 248 1 0.5897 0.1354570987878354 7.361553510870643 10.703870252508743 0 0 0
741 247 1 0.5897 -5.800310157944073 9.069544192873686 18.265195443386432 0 0 0
83 28 1 0.5897 -4.874393743424599 6.884402672463981 18.83867823977974 0 0 -1
703 235 2 -1.1794 -2.087333759499111 8.712470216605045 12.210343670878828 0 0 0
704 235 1 0.5897 -1.1610027111514416 8.50657070371747 12.08474351114075 0 0 0
705 235 1 0.5897 -2.1218582012451135 9.156165322184629 13.057894870717764 0 0 0
513 171 1 0.5897 -3.9410081545256554 6.0298495102072796 14.276751937430358 0 0 0
706 236 2 -1.1794 -2.9954184351447477 9.307093977805234 17.056086785105556 0 0 0
707 236 1 0.5897 -3.8503734819826443 8.900646181251624 17.19803208630521 0 0 0
750 250 1 0.5897 -3.0332836894403448 10.576606336173965 14.211281449515221 0 0 0
333 111 1 0.5897 -8.33459393375874 9.714940465128151 18.71138136832407 1 0 -1
692 231 1 0.5897 -1.5309974728217335 10.354403833715327 9.677168923556092 0 0 0
796 266 2 -1.1794 -7.968513116368427 10.389276785362735 17.01859024471672 1 0 0
748 250 2 -1.1794 -2.326957552383684 10.013151943640187 14.527252686493279 0 0 0
514 172 2 -1.1794 -0.9521371730851254 6.494814321026342 14.363456528778306 0 0 0
708 236 1 0.5897 -2.365547410416517 8.60670720008892 17.2261784778443 0 0 0
749 250 1 0.5897 -2.6223190039029944 9.718294527841907 15.388812917677406 0 0 0
676 226 2 -1.1794 0.6800133142754579 8.69594811831987 14.609333407296118 0 0 0
512 171 1 0.5897 -4.414151592811082 7.4126692428919965 14.671586732191123 0 0 0
511 171 2 -1.1794 -3.737239675890293 6.762227375799256 14.858475529039234 0 0 0
515 172 1 0.5897 -1.8366603108969457 6.827426467379395 14.515890053735722 0 0 0
516 172 1 0.5897 -0.3843603578325654 7.254356374199772 14.493743776232613 0 0 0
724 242 2 -1.1794 0.6806546515863072 10.86190071705181 12.930946373269036 0 0 0
757 253 2 -1.1794 -5.749855311059074 8.579113154711925 14.36047103531629 1 0 0
695 232 1 0.5897 -2.865008261865192 10.206196196488602 18.549121364353162 0 0 0
758 253 1 0.5897 -5.508350036953852 9.297561040839655 14.945102955245417 1 0 0
616 206 2 -1.1794 -6.358375282012421 6.54981376887699 12.18461342740176 1 0 0
762 254 1 0.5897 -7.478861144067386 8.54578177960718 14.758074539844648 1 0 0
568 190 2 -1.1794 -1.1561344790205021 7.404212368861116 17.894059136404074 0 0 0
618 206 1 0.5897 -6.559580661724265 5.988700268218308 11.435613176316753 1 0 0
836 279 1 0.5897 -4.714399413201491 8.216516461008194 10.04631579931164 1 0 0
678 226 1 0.5897 0.5053393203388943 9.386406365225056 13.969737893802556 0 0 0
739 247 2 -1.1794 -5.404141978347907 8.304666830291005 17.847703192589087 0 0 0
613 205 2 -1.1794 -7.441561159769136 6.606848024303228 16.8903964623401 1 0 0
740 247 1 0.5897 -6.139529484760407 7.843819847326711 17.44387574037519 0 0 0
794 265 1 0.5897 -5.26379945561518 10.74698977733444 12.215295182824892 1 0 0
569 190 1 0.5897 -1.3105533246631662 6.578414013162963 18.352902079819167 0 0 0
805 269 2 -1.1794 -5.480120584896312 10.836952542652444 15.822545500223157 1 0 0
691 231 2 -1.1794 -2.4537823884560837 10.131485264517957 9.799888819579259 0 0 0
615 205 1 0.5897 -7.264200515024221 6.170586589732824 16.056954150897262 1 0 0
662 221 1 0.5897 -6.577148564639828 5.772331977881402 13.839108750255857 1 0 0
570 190 1 0.5897 -0.358602876471263 7.251695088530407 17.387070414129454 0 0 0
586 196 2 -1.1794 -0.5787002349879762 6.076526948420007 9.758211812699633 0 0 0
726 242 1 0.5897 -0.017805377059783467 11.340267194975095 12.484239986522809 0 0 0
835 279 2 -1.1794 -5.395177946538754 8.80329873901873 9.717015102460493 1 0 0
548 183 1 0.5897 -3.688650032984568 5.826113772547865 16.411272381396607 0 0 0
614 205 1 0.5897 -7.40708277649155 5.905280278794526 17.540753775320567 1 0 0
807 269 1 0.5897 -4.80246449527702 11.311744382228548 16.303810773312676 1 0 0
731 244 1 0.5897 -1.2974742223298117 11.289531062857467 15.396986590306494 0 0 0
653 218 1 0.5897 -9.070015203587346 7.113704148707079 17.412824989399205 1 0 0
280 94 2 -1.1794 -3.504045270807691 13.820826961709221 2.595322447058396 1 0 0
372 124 1 0.5897 0.2583108632538562 16.54002692719147 6.291219911817584 0 0 0
340 114 2 -1.1794 3.7375217667319625 16.27432425394598 5.311560456397399 0 0 0
756 252 1 0.5897 -1.7564992269156994 14.563797494570895 9.301228594554097 0 0 0
223 75 2 -1.1794 -0.8668291185112831 11.95342551235116 3.3602934549666 0 0 0
232 78 2 -1.1794 1.8212466508171268 14.453055872587724 8.30783385336589 0 0 0
771 257 1 0.5897 -0.17605154775368437 11.88718748532824 0.156760812918301 1 0 1
277 93 2 -1.1794 -4.497977759610368 13.993847692883769 7.2382333736349915 1 0 0
326 109 1 0.5897 -3.249233534814138 11.909548859832977 5.390808644407775 1 0 0
226 76 2 -1.1794 2.0974753980550407 11.745519222759652 6.395261331881842 0 0 0
408 136 1 0.5897 3.742201558288854 16.0824143232432 1.169750038247567 0 0 0
281 94 1 0.5897 -3.4717489046440466 13.424610658825852 3.4661770940262224 1 0 0
265 89 2 -1.1794 -3.6807714337745403 12.540476218777606 9.530506850371035 1 0 0
423 141 1 0.5897 -2.205382723044604 16.754088183383473 3.9095664563493777 1 0 0
341 114 1 0.5897 3.3118324190703996 15.431180540665494 5.156121617794594 0 0 0
227 76 1 0.5897 1.348146666535225 11.988467672276796 6.9391776817404205 0 0 0
407 136 1 0.5897 4.506797257935702 15.125951774088673 2.0600020287778573 0 0 0
234 78 1 0.5897 1.272217431022142 15.069828476371763 7.823686753607819 0 0 0
404 135 1 0.5897 -1.6404386651956613 15.840346037145355 7.740977599230006 0 0 0
403 135 2 -1.1794 -2.4631084011184208 15.77035654545649 8.225382546695949 0 0 0
282 94 1 0.5897 -2.6239644270431155 14.171510326417792 2.4583306543892185 1 0 0
178 60 2 -1.1794 2.068941712602612 14.02869010884381 4.8951018624872225 0 0 0
180 60 1 0.5897 1.9667417047049494 13.624731477284339 4.0332668894725785 0 0 0
368 123 1 0.5897 2.0295375873635884 15.84575945792318 2.563882135348552 0 0 0
314 105 1 0.5897 -0.2709813747158929 15.180755829435274 2.091066961491963 1 0 0
175 59 2 -1.1794 -0.6972712600114739 14.096954050234677 5.054617723592263 0 0 0
313 105 2 -1.1794 -1.0646167612236046 14.751190047874985 1.7719032354231148 1 0 0
315 105 1 0.5897 -0.7460624326772347 14.052501262016571 1.2003454505881517 1 0 0
225 75 1 0.5897 -0.9937901001677427 12.712232269789528 3.9298600424091252 0 0 0
278 93 1 0.5897 -3.9477338202046592 14.725103915578677 7.518874512335575 1 0 0
279 93 1 0.5897 -5.389262453313988 14.266882722788981 7.455767410865043 1 0 0
252 84 1 0.5897 2.907356916646794 14.233602581365018 0.5364341473786107 0 0 0
214 72 2 -1.1794 1.7328227470248274 12.663359094153956 2.4955453424718175 0 0 0
215 72 1 0.5897 1.8349717608450664 12.955105211599925 1.589509211643944 0 0 0
216 72 1 0.5897 0.803719734675318 12.447135008407841 2.5748244093262453 0 0 0
176 59 1 0.5897 -1.147353027016362 14.938979713918847 4.986593906771787 0 0 0
406 136 2 -1.1794 3.623055181950021 15.33787063469673 1.75950151780283 0 0 0
500 167 1 0.5897 -1.8090687351608874 15.839291729026677 0.5440504051137304 1 0 0
177 59 1 0.5897 0.23283534237443826 14.317134790092256 5.002710227402516 0 0 0
367 123 2 -1.1794 1.1424684773411418 16.204990355568487 2.58086004489819 0 0 0
421 141 2 -1.1794 -2.286574556248606 16.31115905635257 4.754343110341949 1 0 0
179 60 1 0.5897 2.19471951364942 13.291353027171294 5.492459819977018 0 0 0
184 62 2 -1.1794 5.47611266866706 12.48378710650078 0.4957844261598105 0 0 0
425 142 1 0.5897 -4.066393806731776 16.01755928863579 4.822729400646406 1 0 0
327 109 1 0.5897 -4.022241425488376 13.17430686350656 5.698641510017507 1 0 0
211 71 2 -1.1794 -0.3327852038057362 12.56835461428243 7.4153867898799355 0 0 0
212 71 1 0.5897 -0.4343829024907988 13.064231421761788 8.227894796286156 0 0 0
213 71 1 0.5897 -0.5227513075774928 13.201056289303397 6.7226098297900725 0 0 0
370 124 2 -1.1794 0.08491464752326383 16.187442190508506 7.164185177805521 0 0 0
267 89 1 0.5897 -3.686386056047851 12.66010777466348 8.580715184992762 1 0 0
325 109 2 -1.1794 -3.808606247418829 12.572285900308497 4.9856980043022086 1 0 0
405 135 1 0.5897 -2.4762788125195208 16.54385941492136 8.789142849657969 0 0 0
224 75 1 0.5897 -0.36535882662747987 11.335447348361479 3.8921649645740777 0 0 0
1004 335 1 0.5897 -5.128829012127529 16.792748033669795 9.052042512241773 1 0 0
233 78 1 0.5897 2.5899867809710235 14.32814206138607 7.751234184765209 0 0 0
690 230 1 0.5897 1.7589361342027736 13.029337785427748 9.382655841162286 0 0 0
369 123 1 0.5897 1.041642062457293 16.553772425620608 3.4666412252404024 0 0 0
499 167 2 -1.1794 -2.366861540412574 16.50786487349177 0.14642166908320864 1 0 0
462 154 1 0.5897 -5.0232403388799645 16.931732778797493 6.52853350625985 1 0 0
371 124 1 0.5897 0.23832122043578208 16.9243645770793 7.755556284852873 0 0 0
774 258 1 0.5897 -5.626100110779133 12.163048646491804 9.48457850672905 1 0 0
910 304 2 -1.1794 0.5016757982929363 15.897786245576812 11.061395994916898 0 0 0
732 244 1 0.5897 -0.22643308187213584 11.665391631293291 16.398786511376734 0 0 0
727 243 2 -1.1794 -3.8827823415790252 11.671625621801299 13.03224997877716 0 0 0
718 240 2 -1.1794 -1.4846486493222963 12.533369661508981 12.046478244234105 0 0 0
927 309 1 0.5897 -5.406632830144087 16.685149201660824 14.801200517755499 1 0 0
720 240 1 0.5897 -1.306138846130322 13.193993314126198 12.715830369015244 0 0 0
911 304 1 0.5897 -0.21352343344363334 16.144066051856864 11.648092608696732 0 0 0
873 291 1 0.5897 -2.582500043169415 15.817599049569054 12.02183907170943 0 0 0
830 277 1 0.5897 -7.105338647888689 13.07507820873227 14.909328627285415 1 0 0
875 292 1 0.5897 -2.9105211333187606 16.6736008101947 15.94644551916835 0 0 0
729 243 1 0.5897 -4.057409808240742 12.446972826759735 13.565769993104006 0 0 0
755 252 1 0.5897 -0.4659651357002357 14.685881473060078 10.083231128017106 0 0 0
831 277 1 0.5897 -7.503017660500531 11.989700780444853 13.931630031539012 1 0 0
784 262 2 -1.1794 -6.359865886638072 13.97683202232733 11.898566750508314 1 0 0
829 277 2 -1.1794 -6.763139845060121 12.536635662596547 14.19563552114234 1 0 0
719 240 1 0.5897 -1.4460004587613833 13.01333995861403 11.219106826657322 0 0 0
786 262 1 0.5897 -6.489510295767834 13.558259611657814 12.749695349730075 1 0 0
817 273 2 -1.1794 -3.869709111659336 14.802804343174566 11.177287699847271 1 0 0
818 273 1 0.5897 -4.6589752076854865 14.517061478572007 11.63747961800272 1 0 0
819 273 1 0.5897 -3.627534483114965 14.05601670537704 10.629596053292005 1 0 0
930 310 1 0.5897 -7.602496478894992 15.984637385931734 14.48642380990873 1 0 0
730 244 2 -1.1794 -0.9959681941733107 12.012287556037718 15.947449446501913 0 0 0
679 227 2 -1.1794 -4.02888346349454 13.963130239538916 14.638737726306276 0 0 0
783 261 1 0.5897 -8.325859916808415 14.313600010840238 16.600791389364105 1 0 0
684 228 1 0.5897 -0.8649900648517646 14.98077883086486 14.333877032884248 0 0 0
682 228 2 -1.1794 -1.4019815276273357 14.197742281502745 14.212377263113043 0 0 0
1003 335 2 -1.1794 -5.51768558562512 16.42514208937784 9.845837258089343 1 0 0
683 228 1 0.5897 -1.0761335960021166 13.579395771778932 14.866421036903937 0 0 0
926 309 1 0.5897 -5.187629733643481 15.239915726724753 14.407130249073132 1 0 0
251 84 1 0.5897 -4.8836870980901885 14.46410222830892 18.720626162866964 0 0 -1
876 292 1 0.5897 -2.5873309584377226 15.508959952119273 16.858159769220862 0 0 0
681 227 1 0.5897 -3.963696078247115 13.52205696084603 15.485857007553019 0 0 0
907 303 2 -1.1794 -5.754583110899152 15.654764706890456 17.715129798383835 0 0 0
925 309 2 -1.1794 -5.750930188335449 15.994412679025729 14.234959155673506 1 0 0
680 227 1 0.5897 -3.121576249208559 14.137765237313188 14.388524231551253 0 0 0
908 303 1 0.5897 -6.1942224384093905 15.000479455782827 17.172078720831905 0 0 0
728 243 1 0.5897 -3.1291827242239387 11.915036565554285 12.494459350915108 0 0 0
1005 335 1 0.5897 -4.850426810580926 15.829184704445037 10.186158491916892 1 0 0
715 239 2 -1.1794 -3.6353988495679372 12.475727788119759 16.860872389836132 0 0 0
716 239 1 0.5897 -3.718570550858363 12.94651362245902 17.69023245245981 0 0 0
871 291 2 -1.1794 -1.9501144590184616 16.519488164998208 12.175791887499285 0 0 0
874 292 2 -1.1794 -3.223645819103549 16.211336610981974 16.724071144629264 0 0 0
736 246 2 -1.1794 -1.2004776620996394 14.605106801785928 17.740631643926854 0 0 0
912 304 1 0.5897 1.0365468483521179 15.293198935781033 11.575818571462285 0 0 0
754 252 2 -1.1794 -1.060877186902716 14.041176386198554 9.700218111302382 0 0 0
909 303 1 0.5897 -4.962328080092405 15.878792284370325 17.226745788763516 0 0 0
781 261 2 -1.1794 -7.494491419870746 13.853936613063548 16.483447429139993 1 0 0
782 261 1 0.5897 -7.365984789578391 13.377394386226866 17.30367972643404 1 0 0
806 269 1 0.5897 -5.816388046596996 11.473026422252167 15.1911704876891 1 0 0
717 239 1 0.5897 -2.691947753783756 12.370071050225093 16.738395992002623 0 0 0
773 258 1 0.5897 -6.537427826794804 12.623277315296063 10.60260336819161 1 0 0
785 262 1 0.5897 -7.104591324571079 14.571235076614265 11.80757905450913 1 0 0
737 246 1 0.5897 -0.9506177859277587 15.331467106761709 18.311818653791086 0 0 0
844 282 2 -1.1794 0.42537418302727303 16.233157154332524 14.637259590090814 0 0 0
688 230 2 -1.1794 2.007689182171733 12.319201529657578 9.974373474772213 0 0 0
185 62 1 0.5897 -1.2475222261779235 13.315060897346555 18.900379033688466 0 0 -1