LAMMPS data file via write_data, version 30 Jul 2021, timestep = 12000000

972 atoms
2 atom types
648 bonds
1 bond types
324 angles
1 angle types

-0.004327872920823594 20.004328872909902 xlo xhi
-0.07331215755050735 20.073313157547297 ylo yhi
-0.2173810771310336 20.917379077129254 zlo zhi

Masses

1 1.008
2 15.999

Pair Coeffs # lj/cut/tip4p/long/omp

1 0 0
2 0.21084 3.1668

Bond Coeffs # harmonic/omp

1 450 0.9572

Angle Coeffs # harmonic/omp

1 55 104.52

Atoms # full

10 4 2 -1.1794 1.3688716202052715 3.8827018835800526 3.576105642731656 0 0 0
11 4 1 0.5897 1.1679627233598302 3.1384560377257804 3.0087323825320658 0 0 0
12 4 1 0.5897 2.268114457030152 4.120858853217456 3.350175982972376 0 0 0
33 11 1 0.5897 1.4141964150705275 2.1825898611709604 0.8941905522816875 0 0 0
31 11 2 -1.1794 0.7652392559494472 2.0968381091054917 1.5926305096001663 0 0 0
18 6 1 0.5897 4.511298876179074 3.0813025851317875 2.662640886747963 0 0 0
23 8 1 0.5897 3.1570700166710584 1.1016473772628794 4.354171696522387 0 0 0
4 2 2 -1.1794 4.291284475578445 0.8411760831841392 2.9771065121496556 0 0 0
131 44 1 0.5897 2.201289952628558 6.49679198264791 4.957906500756756 0 0 0
16 6 2 -1.1794 4.449532351937108 3.894951966145019 3.1629522357672286 0 0 0
5 2 1 0.5897 4.3092443402223255 0.032972885726171505 2.4646535356962698 0 0 0
13 5 2 -1.1794 4.953395670035048 5.938711651360626 1.380516620613827 0 0 0
17 6 1 0.5897 4.912468618446516 4.540620277763826 2.629081856257818 0 0 0
110 37 1 0.5897 2.1503413341045516 9.537572132364906 0.2080530208298243 0 0 0
139 47 2 -1.1794 0.8025853657842477 8.662372351498934 1.3608489084605864 0 0 0
141 47 1 0.5897 0.8511828432155487 7.760417909576629 1.6774610768190923 0 0 0
674 225 1 0.5897 1.7026682737473544 5.620694178174865 0.2572009620695553 0 0 1
236 79 1 0.5897 0.9675917543687302 0.3792745960024426 1.5077852868192658 0 1 0
140 47 1 0.5897 0.7953151652577818 9.195616630569162 2.1557156324861677 0 0 0
19 7 2 -1.1794 0.5573156946746416 5.717173878906884 1.7396649106498188 0 0 0
126 42 1 0.5897 4.277930774268878 9.85169537424037 3.142311075568205 0 0 0
15 5 1 0.5897 4.6859795737889485 6.698242054986481 1.8979967856976852 0 0 0
20 7 1 0.5897 0.6856004063208018 5.148201954952103 2.4986166489724777 0 0 0
112 38 2 -1.1794 4.306206112882556 8.011224042484011 3.0779170516379235 0 0 0
114 38 1 0.5897 3.457344019324153 7.792550757565165 3.462613851635829 0 0 0
14 5 1 0.5897 4.191659215204299 5.738951746819107 0.8362650147402737 0 0 0
102 34 1 0.5897 0.6882153480532333 0.9909503556537469 5.034542344960114 1 0 0
130 44 2 -1.1794 2.0602486697533275 7.206216556361156 4.331002462557585 0 0 0
113 38 1 0.5897 4.942823794628567 7.782462429431069 3.7551970695664747 0 0 0
132 44 1 0.5897 1.1085374668239918 7.2964679036318465 4.280793642617176 0 0 0
22 8 2 -1.1794 2.4885505294142125 1.0515682582345294 5.037484329873986 0 0 0
325 109 2 -1.1794 2.9120080779563122 2.692006186822338 7.343567555540879 0 0 0
326 109 1 0.5897 2.6929591732541596 2.352475057789413 6.475837755058609 0 0 0
327 109 1 0.5897 3.8180912833663228 2.418297130348476 7.486727274578394 0 0 0
355 119 2 -1.1794 0.9951244652422693 1.9496773011366493 9.07423622468263 0 0 0
356 119 1 0.5897 1.8196924594675696 2.064826958048786 8.601804780909037 0 0 0
341 114 1 0.5897 3.893847158288515 3.1262642881011025 10.224477741690665 0 0 0
27 9 1 0.5897 2.279404414543231 4.4128246551062045 6.273798846165636 0 0 0
342 114 1 0.5897 3.8932777785410755 4.571298109380261 9.773366065614084 0 0 0
468 156 1 0.5897 4.403859811380429 9.077156719621811 7.103365712795439 0 0 0
337 113 2 -1.1794 4.149230734026461 5.697613117618682 8.393686038055073 0 0 0
463 155 2 -1.1794 0.8236511351714447 8.719099724809515 8.795482893549886 0 0 0
343 115 2 -1.1794 0.5495114558574344 5.785591162405535 8.554700365472463 0 0 0
335 112 1 0.5897 0.8729237893768299 3.207963715078406 10.299861817245294 0 0 0
26 9 1 0.5897 1.4972858540628788 5.455314745014046 7.04413751525259 0 0 0
437 146 1 0.5897 3.9124449156451275 7.00030176076189 9.681023247186218 0 0 0
433 145 2 -1.1794 2.5557614541388887 9.059114855842218 6.599889225158039 0 0 0
25 9 2 -1.1794 2.166248938111042 5.358748384959401 6.366269418356951 0 0 0
329 110 1 0.5897 4.243627917015326 0.45113165665142974 9.646471884419878 0 0 0
435 145 1 0.5897 2.4254843577426275 8.565124195409908 5.790432563705497 0 0 0
339 113 1 0.5897 3.7487517769921928 5.4087462889346325 7.573665956913652 0 0 0
345 115 1 0.5897 0.8374246551813408 6.662110012859914 8.809593015807998 0 0 0
464 155 1 0.5897 1.5650503240349722 8.886293924290833 8.213490038567919 0 0 0
344 115 1 0.5897 0.7041711158440027 5.247138390394893 9.330776949539043 0 0 0
24 8 1 0.5897 2.6297073361131758 0.19912633084872527 5.449260691521637 0 0 0
561 187 1 0.5897 0.8562179406569472 0.11850130036114553 8.780172105393644 0 1 0
328 110 2 -1.1794 4.262649764321604 1.2947993691347992 10.098152454685609 0 0 0
434 145 1 0.5897 2.3409218695585063 9.962292902533477 6.366994724649088 0 0 0
438 146 1 0.5897 3.9081432595602186 8.466689478052105 10.05686955744909 0 0 0
465 155 1 0.5897 0.06716329808393881 9.074418215567835 8.328792765219418 0 0 0
357 119 1 0.5897 0.32477409815020836 2.2634392568709494 8.467184210282854 0 0 0
443 148 1 0.5897 0.7962138717096892 9.978294031874738 10.137537085037719 0 0 0
649 217 2 -1.1794 2.734848121294579 2.6337457505621975 14.24446004035495 0 0 0
650 217 1 0.5897 2.5725094153543835 2.212033285960582 13.400636203004943 0 0 0
651 217 1 0.5897 2.0170759015632616 2.336111805522543 14.803524593900693 0 0 0
347 116 1 0.5897 1.4403284702049788 0.8188853567618117 11.756300789774423 0 0 0
348 116 1 0.5897 2.8337897842063486 1.0786974139581726 11.224248652484526 0 0 0
346 116 2 -1.1794 2.3366735717673475 1.0012831367955564 12.03861172964892 0 0 0
336 112 1 0.5897 1.895257166166391 4.225966853346143 10.758528232256705 0 0 0
350 117 1 0.5897 2.558749111602007 4.50290699531352 13.983918423631884 0 0 0
792 264 1 0.5897 4.625327753511463 9.071747125207246 14.592736803445145 0 0 0
668 223 1 0.5897 1.0469009444691864 5.802028996426176 15.088561608855427 0 0 0
789 263 1 0.5897 1.3165425284590717 8.470116824316445 15.521604512385792 0 0 0
351 117 1 0.5897 3.244417208466125 5.818251157219078 14.286446049562514 0 0 0
340 114 2 -1.1794 3.690482867933024 4.012459231901991 10.523554883999099 0 0 0
661 221 2 -1.1794 4.70501859981778 5.840958119975493 15.458418721848272 0 0 0
349 117 2 -1.1794 2.4326446842656537 5.4505429240351875 13.936905430242378 0 0 0
456 152 1 0.5897 1.8975382208555065 6.566297833322187 12.628372489916629 0 0 0
455 152 1 0.5897 2.423296016201926 7.299430895833749 11.412631327897786 0 0 0
757 253 2 -1.1794 2.6563483023528827 8.821527826950424 14.320402834257285 0 0 0
759 253 1 0.5897 2.4471698577125967 8.336541808876122 13.52211527300142 0 0 0
454 152 2 -1.1794 1.6967856675999804 7.290772337718442 12.035900607209754 0 0 0
683 228 1 0.5897 4.559882702223354 2.73430007651009 14.491838353011953 0 0 0
436 146 2 -1.1794 3.8623324840603765 7.588401579989878 10.434548033080105 0 0 0
334 112 2 -1.1794 0.9637929266622597 4.011604775032381 10.811717205144538 0 0 0
332 111 1 0.5897 4.918450806003896 4.42139771108694 11.922124395562529 0 0 0
758 253 1 0.5897 2.6108388954916317 9.741719239460956 14.060963389577996 0 0 0
653 218 1 0.5897 3.3478163826894924 1.1201132463316492 17.29573089573356 0 0 0
652 218 2 -1.1794 4.191669522063292 1.4193272857096713 16.957022000081338 0 0 0
664 222 2 -1.1794 3.9182935376841486 4.029143638675321 17.62074582057164 0 0 0
671 224 1 0.5897 2.1470475510029785 1.7410441550081956 19.422546691555603 0 0 0
666 222 1 0.5897 4.061375137797034 3.12009247245143 17.35754040668205 0 0 0
670 224 2 -1.1794 2.000920570109166 1.0010456370683027 18.833287290985332 0 0 0
665 222 1 0.5897 2.984833505637196 4.074951119112585 17.827984028390915 0 0 0
681 227 1 0.5897 0.9315763400756397 2.5577502735122635 16.70192793932278 0 0 0
672 224 1 0.5897 1.0523098890470948 0.978844989848211 18.706514037287356 0 0 0
658 220 2 -1.1794 1.161529586846704 4.082763594477266 17.682377819651823 0 0 0
884 295 1 0.5897 0.7006620059511474 0.028180337057523125 15.903733510310087 0 1 0
654 218 1 0.5897 4.519140707881808 0.6815431253912363 16.44261954677074 0 0 0
660 220 1 0.5897 0.9216568095746198 4.715915911855439 17.005777928309673 0 0 0
858 286 1 0.5897 0.20497105044885033 7.628693904160057 18.934144084920714 1 0 0
659 220 1 0.5897 0.5187550108013391 4.220112747723693 18.378293960918473 0 0 0
780 260 1 0.5897 2.740024437595461 7.560263634482538 18.305422421720362 0 0 0
679 227 2 -1.1794 0.701090882767119 1.8944814770099045 16.05142743951399 0 0 0
760 254 2 -1.1794 4.458101723899522 8.01598804564559 17.16243897392705 0 0 0
788 263 1 0.5897 0.7880355114375162 9.06895385005142 16.807667987585283 0 0 0
669 223 1 0.5897 0.4504603153133652 6.787227302707689 16.071163779895784 0 0 0
761 254 1 0.5897 4.461774419852813 8.973007609126563 17.147661787750707 0 0 0
675 225 1 0.5897 2.2763179038609005 6.1295096999927114 20.08662357697872 0 0 0
779 260 1 0.5897 2.2492348350175417 8.361770387230727 19.49226179502002 0 0 0
778 260 2 -1.1794 2.020084487423359 7.619121462313834 18.933564438964133 0 0 0
663 221 1 0.5897 4.742707283465839 6.6129622965657715 16.022989034199785 0 0 0
787 263 2 -1.1794 0.5715342129864802 8.437377438998421 16.121783027258918 0 0 0
662 221 1 0.5897 4.418724169969752 5.134290391095633 16.03708605950026 0 0 0
673 225 2 -1.1794 2.484987095808661 5.579709488015404 20.841848334812322 0 0 0
667 223 2 -1.1794 0.3657452684766882 5.887542947794173 15.75568151950892 0 0 0
2 1 1 0.5897 2.672064053150271 3.7055760345082387 20.76711309980024 0 0 -1
1 1 2 -1.1794 2.757406831643084 2.7523496196180517 20.7540107175709 0 0 -1
111 37 1 0.5897 3.552953372334422 9.41628047685198 20.785781769966707 0 0 -1
109 37 2 -1.1794 2.681506213987456 9.752331431014996 20.57597456638781 0 0 -1
762 254 1 0.5897 4.990147844651966 7.7857005328639115 17.924145884010713 0 0 0
3 1 1 0.5897 3.6972452631673858 2.594284363501869 20.844176482797764 0 0 -1
120 40 1 0.5897 0.9925510120237153 11.619363792528503 2.7847397460721166 0 0 0
127 43 2 -1.1794 0.986330615788337 13.007280938535116 1.499455173062036 0 0 0
129 43 1 0.5897 1.1854369338205695 13.930189079760423 1.6567320901945992 0 0 0
240 80 1 0.5897 2.5249622700398713 13.826902858634583 4.158910320430755 0 0 0
121 41 2 -1.1794 4.96263295376503 12.489613111513394 1.2768190370645223 0 0 0
238 80 2 -1.1794 1.8903977153689502 13.757634471882437 4.87225318718152 0 0 0
118 40 2 -1.1794 1.2628107794239996 10.813441037422256 3.22475771630655 0 0 0
123 41 1 0.5897 4.361227147024242 12.42387879969054 0.534987814522212 0 0 0
119 40 1 0.5897 2.1846987153044273 10.955146333752502 3.4402753594123703 0 0 0
228 76 1 0.5897 0.9046306322723496 17.845979400210574 4.258804207356648 0 0 0
125 42 1 0.5897 4.657561414251018 10.894271812345531 4.172232491806652 0 0 0
122 41 1 0.5897 4.678814827304162 11.800621559449572 1.877601449248536 0 0 0
124 42 2 -1.1794 4.08352969784726 10.746642177534326 3.420562790994 0 0 0
220 74 2 -1.1794 4.111341165399298 14.290818772596886 3.208346546556487 0 0 0
221 74 1 0.5897 4.09874164564578 15.24160643737988 3.098973578908865 0 0 0
230 77 1 0.5897 4.538272827768467 18.892715221901852 0.6946041250855776 0 0 0
222 74 1 0.5897 4.290496647846286 13.950787818036027 2.331692643676326 0 0 0
235 79 2 -1.1794 0.9407179717229719 19.572697038453757 1.4253709934529248 0 0 0
233 78 1 0.5897 4.44564489891765 17.70042405198178 2.7175902605005167 0 0 0
248 83 1 0.5897 1.2378258602621937 16.430619519670692 2.488952068833495 0 0 0
232 78 2 -1.1794 4.156831016471006 17.14772409097424 3.4437615385431433 0 0 0
234 78 1 0.5897 3.26372035047681 17.439507555800926 3.6270739057931864 0 0 0
227 76 1 0.5897 1.4640313360183024 18.619487760151568 3.083782925381599 0 0 0
226 76 2 -1.1794 1.5836470219843026 17.812798940561436 3.584886614918726 0 0 0
247 83 2 -1.1794 1.110310595519682 15.716689123227045 1.8642975394715937 0 0 0
783 261 1 0.5897 2.267866492547658 12.693644029399278 -0.014516282719811702 0 0 1
249 83 1 0.5897 1.5454138989499864 16.01568207503927 1.0658771645391685 0 0 0
890 297 1 0.5897 2.3935043752448357 19.19112328235998 0.4036890767957948 0 0 1
188 63 1 0.5897 0.14865734158345018 11.271477826178486 4.842404400506785 1 0 0
317 106 1 0.5897 0.1257430363799813 13.909612661811556 4.8519518074979615 1 0 0
128 43 1 0.5897 0.03489147833400525 12.981053290490664 1.3970065383843393 0 0 0
237 79 1 0.5897 0.007865337547680292 19.361450348825947 1.3859025541195371 0 0 0
229 77 2 -1.1794 4.988419624039464 18.643556816780272 1.5018000661252797 0 0 0
133 45 2 -1.1794 2.6295347315226234 11.815970339153843 6.580963803797962 0 0 0
134 45 1 0.5897 1.8496414202237617 12.096948901681145 7.0596553658226675 0 0 0
135 45 1 0.5897 3.3571723317373996 12.011826982720631 7.171332942667435 0 0 0
453 151 1 0.5897 0.4898068780413421 11.9522346075435 9.139505573614878 0 0 0
450 150 1 0.5897 3.8549413641779466 11.309023726161806 10.175222106554873 0 0 0
451 151 2 -1.1794 0.3879922338680574 12.551463200201027 8.400070077011215 0 0 0
573 191 1 0.5897 0.9530070725669991 14.459966256646892 9.314189967194606 0 0 0
576 192 1 0.5897 4.294014365734998 15.66462106816214 7.028451623431506 0 0 0
558 186 1 0.5897 4.178600067621289 17.789440492173615 9.89060233603206 0 0 0
446 149 1 0.5897 4.299220251979105 13.200363003005666 9.09361867669794 0 0 0
543 181 1 0.5897 2.2433928498091475 14.988428405675311 6.178196215575398 0 0 0
555 185 1 0.5897 3.699079265475259 18.87377098028657 7.704394470727667 0 0 0
239 80 1 0.5897 2.200049902663004 13.020240099125797 5.398092281183543 0 0 0
571 191 2 -1.1794 0.8744638224140499 15.334006521673363 8.932056851282846 0 0 0
542 181 1 0.5897 2.041687678237958 15.380375224274747 7.626500604036866 0 0 0
559 187 2 -1.1794 0.6865930330987162 19.345022920635845 8.578284643067013 0 0 0
572 191 1 0.5897 1.083876792399838 15.92997545265473 9.651208801000589 0 0 0
553 185 2 -1.1794 4.287193739816984 18.98516499953419 8.45141106295044 0 0 0
241 81 2 -1.1794 2.4159257173380073 18.552453562481336 6.531876259143803 0 0 0
242 81 1 0.5897 2.5160570847070143 17.60068355760586 6.547125925792075 0 0 0
243 81 1 0.5897 1.575815293800779 18.712317288225794 6.962044795251594 0 0 0
541 181 2 -1.1794 2.517508228892647 15.629374992444792 6.834117029322299 0 0 0
445 149 2 -1.1794 4.429504080060134 12.355163667986172 8.663723271032655 0 0 0
544 182 2 -1.1794 4.006848134263807 14.77590433250564 10.2999332867785 0 0 0
551 184 1 0.5897 1.1180675960953121 18.006383446866085 9.798735773281265 0 0 0
457 153 2 -1.1794 2.2283274340603163 11.632357527717414 13.79841607280396 0 0 0
458 153 1 0.5897 1.436176812014666 11.724075027934077 14.327994520365234 0 0 0
459 153 1 0.5897 2.930691828916016 11.964759954726773 14.357449100988502 0 0 0
562 188 2 -1.1794 2.228680830527531 13.948231043376685 12.200726212637994 0 0 0
563 188 1 0.5897 2.341105176372636 13.15723827520238 12.727837423019816 0 0 0
556 186 2 -1.1794 3.9997322793914076 17.42970313638959 10.759417374331791 0 0 0
564 188 1 0.5897 2.4155662258905863 14.667268302265667 12.804227873881715 0 0 0
546 182 1 0.5897 4.783749288427566 14.597629612895258 10.830034586820297 0 0 0
552 184 1 0.5897 2.104001606305893 17.482803461577625 10.821366618228632 0 0 0
867 289 1 0.5897 2.0732961375771977 15.729124941971639 14.695676191552142 0 0 0
642 214 1 0.5897 0.3588963928851888 14.223271611385822 11.563983100497138 1 0 0
448 150 2 -1.1794 3.641239846257895 10.642302086593666 10.827917236809625 0 0 0
769 257 2 -1.1794 4.419546685690804 12.591826825565501 15.414251062493863 0 0 0
885 295 1 0.5897 1.4432010721370228 19.30215547264258 14.91426328568283 0 0 0
565 189 2 -1.1794 2.9431772433455454 18.82603179374898 13.754026585421789 0 0 0
866 289 1 0.5897 3.5188714292539016 15.782076844078782 14.248635171333955 0 0 0
442 148 2 -1.1794 0.8694307978150067 10.825706346718867 10.576476546339325 0 0 0
865 289 2 -1.1794 2.6281107460296873 15.973570443103942 13.954921146483205 0 0 0
879 293 1 0.5897 4.376442414773105 19.246183187212623 14.780084235160544 0 0 0
566 189 1 0.5897 2.961346188460854 17.87415491339228 13.65542434541236 0 0 0
550 184 2 -1.1794 1.167973634651308 17.526868932160504 10.625612205321149 0 0 0
567 189 1 0.5897 2.6301874601564528 19.148880641036957 12.909001219883448 0 0 0
557 186 1 0.5897 4.132929392875393 16.487010366030194 10.66085891718956 0 0 0
444 148 1 0.5897 1.7646355873623756 10.844063929130106 10.9151079071816 0 0 0
449 150 1 0.5897 4.3612974149050725 10.68316031076025 11.457326081831246 0 0 0
896 299 1 0.5897 0.1066753438692208 15.44410916000334 15.456919141056082 0 0 0
545 182 1 0.5897 3.29428331384803 14.33447158462684 10.762222469266657 0 0 0
877 293 2 -1.1794 4.99618082009997 19.438598178996358 15.483786631667087 0 0 0
883 295 2 -1.1794 0.7784935925245511 19.2696927898167 15.602323083678348 0 0 0
768 256 1 0.5897 0.8286899260563099 11.320821179736093 17.225106167844007 0 0 0
888 296 1 0.5897 2.4048084247469506 13.522575854635017 19.056988954760552 0 0 0
766 256 2 -1.1794 1.092984166790599 10.658330695911218 17.863416893001393 0 0 0
773 258 1 0.5897 2.992873496158879 10.750022459110271 17.783065300767902 0 0 0
887 296 1 0.5897 2.2746011710279603 15.02167092273808 19.222482282952893 0 0 0
218 73 1 0.5897 2.3977880850338815 17.28518772643223 20.45353049904316 0 0 -1
868 290 2 -1.1794 4.203367379166985 14.920492858995832 17.005748831091115 0 0 0
891 297 1 0.5897 2.673452957482346 19.73513320538875 20.153676525102036 0 0 0
882 294 1 0.5897 4.1132642490644775 16.714735979772623 17.169910552910995 0 0 0
886 296 2 -1.1794 2.15394047946168 14.317124541987065 18.58590602334886 0 0 0
772 258 2 -1.1794 3.9336772874772445 10.875655874224954 17.65847836234541 0 0 0
869 290 1 0.5897 3.372468954230456 14.759455798168414 17.45302787326724 0 0 0
875 292 1 0.5897 0.6384054474190555 17.576299984393785 18.34681133596491 0 0 0
782 261 1 0.5897 2.988941654278395 11.578921115112339 20.39272596446797 0 0 0
878 293 1 0.5897 4.752113684274869 18.83922636095028 16.189048714698753 0 0 0
874 292 2 -1.1794 1.2464119120972792 17.44279941069431 17.61961329753096 0 0 0
889 297 2 -1.1794 3.0521512912230397 19.190594016182292 20.84381662782336 0 0 0
774 258 1 0.5897 3.998831103172277 11.604826860728615 17.041849448100177 0 0 0
876 292 1 0.5897 0.9903795928734828 18.097073902828797 16.969567728572272 0 0 0
897 299 1 0.5897 0.9564404061759587 15.863772491811284 16.63753437877719 0 0 0
881 294 1 0.5897 3.204260618714663 17.773311546526692 17.757342275433537 0 0 0
767 256 1 0.5897 0.5297502563932132 10.816848653302822 18.621007961173262 0 0 0
880 294 2 -1.1794 4.071139792808104 17.649672459246748 17.370524166124664 0 0 0
771 257 1 0.5897 4.341676492189378 13.430560434468198 15.868796601866144 0 0 0
777 259 1 0.5897 0.7048366965374734 13.259358832694407 16.032532406516744 0 0 0
781 261 2 -1.1794 3.004181695974965 12.52573537376804 20.53202336393292 0 0 0
965 322 1 0.5897 0.42677553871472534 14.393409050742076 18.63269197873721 1 0 0
895 299 2 -1.1794 0.8746587847542528 15.185909575014797 15.966715075375358 0 0 0
870 290 1 0.5897 4.871705175222666 14.716317336235514 17.65994595593598 0 0 0
219 73 1 0.5897 3.4551392945374455 16.20511521966141 20.539554239533963 0 0 -1
217 73 2 -1.1794 2.508022249951967 16.34133159022336 20.56792746623115 0 0 -1
775 259 2 -1.1794 0.505785427261195 12.346674879189827 15.82393564969215 0 0 0
34 12 2 -1.1794 5.3884611585192 2.399771111221597 0.31530810739245607 0 0 0
47 16 1 0.5897 7.586879906305159 3.6553860995284944 3.1793906148393805 0 0 0
149 50 1 0.5897 9.953980416763901 7.766523934518316 3.8180522030742114 0 0 0
46 16 2 -1.1794 7.7351218830010415 4.499058727090407 3.6064115909438863 0 0 0
48 16 1 0.5897 7.135589296131834 4.498972102515258 4.352656600582503 0 0 0
69 23 1 0.5897 6.577227753745554 1.8829764289231632 1.642431898822096 0 0 0
67 23 2 -1.1794 7.366468284569427 1.6717683209609129 2.1412900238465395 0 0 0
68 23 1 0.5897 8.086506381950105 1.8352490354223945 1.532066318790728 0 0 0
37 13 2 -1.1794 9.235464541090053 2.459033341312796 0.043583792973563074 0 0 0
53 18 1 0.5897 9.714089547035991 4.332330495016983 3.8655770217816805 0 0 0
56 19 1 0.5897 6.6318808587387545 5.8888749172612895 1.1552929339651927 0 0 0
55 19 2 -1.1794 7.544844610001781 5.995607727833733 1.4226549427791537 0 0 0
176 59 1 0.5897 7.306825291327154 7.9174431665837615 2.229347122051534 0 0 0
143 48 1 0.5897 5.788240598795671 9.245875735368855 0.9604106774541203 0 0 0
57 19 1 0.5897 7.594974307887194 5.572260783106503 2.279674967046005 0 0 0
142 48 2 -1.1794 5.209571370484132 9.283566585070147 0.19880702281963153 0 0 0
177 59 1 0.5897 7.900985879174278 8.92654685867535 1.269892284875979 0 0 0
175 59 2 -1.1794 7.293341233176221 8.847912629263032 2.005354116563879 0 0 0
711 237 1 0.5897 8.602402165707863 5.306301754539083 0.10631353184977593 0 0 1
155 52 1 0.5897 7.8409733245944135 9.843087809776893 3.359347899704874 0 0 0
41 14 1 0.5897 9.91388102583322 0.7462245081404322 3.6879282276724217 0 0 0
29 10 1 0.5897 7.076202337054749 0.3419340992652227 4.974372378601263 0 0 0
138 46 1 0.5897 7.087473832602365 7.275065291061759 4.986184896755342 0 0 0
6 2 1 0.5897 5.0539669868043795 0.7777634037797124 3.5521376384471317 0 0 0
136 46 2 -1.1794 6.130761122803713 7.265557956281272 5.018318699969196 0 0 0
145 49 2 -1.1794 9.155669873944646 9.291357220590776 0.08783525318068197 0 0 0
36 12 1 0.5897 5.525280116097053 3.2053709734985243 -0.18312567626409731 0 0 0
28 10 2 -1.1794 6.120300819239614 0.3052014049153743 5.010154858254253 0 0 0
9 3 1 0.5897 5.060301982677189 4.299409949103643 4.797847578769978 0 0 0
371 124 1 0.5897 7.5188162787133885 3.2659224326544054 10.23586755191296 0 0 0
359 120 1 0.5897 6.219903592307833 2.1200207174624204 7.676453991571343 0 0 0
61 21 2 -1.1794 9.069537948927913 5.12401845586181 6.575172885438037 0 0 0
360 120 1 0.5897 5.8126704963502664 1.653150003231328 6.295115407111797 0 0 0
361 121 2 -1.1794 9.162917382223734 2.3448919332890648 6.988061614125784 0 0 0
7 3 2 -1.1794 5.5711712369295485 4.664717374971832 5.520238041067318 0 0 0
392 131 1 0.5897 8.236067082828125 1.8525335334470012 8.491468394081759 0 0 0
393 131 1 0.5897 7.2291143673523 0.8411363533518698 8.996551455981638 0 0 0
362 121 1 0.5897 9.106658304490065 3.3001980767803456 6.969851471333333 0 0 0
8 3 1 0.5897 5.639979795658687 3.9487062640309905 6.151715839051245 0 0 0
391 131 2 -1.1794 7.46340957502325 1.767618551111307 9.050175051599686 0 0 0
470 157 1 0.5897 8.508135549528552 8.92583377444188 7.9608573358052315 0 0 0
469 157 2 -1.1794 9.011018399802634 9.248199591917702 7.2128808123137045 0 0 0
62 21 1 0.5897 8.351387021266431 5.364639894349621 7.160562166330531 0 0 0
500 167 1 0.5897 7.262717828536545 9.328286148176375 9.802622804472486 0 0 0
499 167 2 -1.1794 7.193582997302184 8.560457795123956 9.235374033159072 0 0 0
380 127 1 0.5897 7.116769675594023 6.736025884377124 8.62913455802422 0 0 0
59 20 1 0.5897 8.901069492386991 0.9355839570003881 5.80005238255731 0 0 0
381 127 1 0.5897 7.092200358477885 5.275565295087145 9.026731864837737 0 0 0
168 56 1 0.5897 8.981460838167717 8.167420621672305 5.830975481173597 0 0 0
501 167 1 0.5897 6.508150141106231 8.787302376909711 8.606836340631887 0 0 0
379 127 2 -1.1794 6.94444572118639 5.860272513094663 8.283435064076803 0 0 0
467 156 1 0.5897 5.560709699881717 8.307032667821431 6.5027535977740865 0 0 0
338 113 1 0.5897 5.078310998411222 5.796578316919632 8.185296605576513 0 0 0
63 21 1 0.5897 9.862340732720536 5.334196550667884 7.068774737702144 0 0 0
358 120 2 -1.1794 5.601953653102887 2.3004467056172855 6.968011355198015 0 0 0
466 156 2 -1.1794 5.33176186460339 8.88111279430145 7.233666111377355 0 0 0
137 46 1 0.5897 5.905228118364977 6.349992987133582 5.182630886984485 0 0 0
167 56 1 0.5897 8.843675582370873 6.68712725913757 5.545725725073672 0 0 0
471 157 1 0.5897 9.924656925162084 9.179519054346027 7.490293163205556 0 0 0
166 56 2 -1.1794 8.778983339614902 7.547160395389024 5.1306316619322585 0 0 0
58 20 2 -1.1794 8.818223756715055 0.23371273358647143 5.154533140635491 0 0 0
717 239 1 0.5897 6.709169050772386 2.31065501875395 15.563497368159245 0 0 0
370 124 2 -1.1794 7.708329546537108 4.189914321765722 10.398506500217112 0 0 0
492 164 1 0.5897 8.132444019380872 7.842433942334533 11.608164398832432 0 0 0
386 129 1 0.5897 9.021806356677336 4.437210107532942 13.508772225964902 0 0 0
354 118 1 0.5897 5.757438631794638 1.4614694404368507 13.055014466278232 0 0 0
684 228 1 0.5897 5.620396093258638 3.493314906838316 13.722912088934692 0 0 0
331 111 2 -1.1794 5.713318475126473 4.6183468235662914 12.41786348362036 0 0 0
352 118 2 -1.1794 5.896114260263554 1.0473759604854962 12.203235298613667 0 0 0
372 124 1 0.5897 7.058862325820802 4.45721369919463 11.048913490570005 0 0 0
790 264 2 -1.1794 5.464095830593429 9.139838346891963 14.13642595757504 0 0 0
382 128 2 -1.1794 8.599450316945614 0.9151594942279077 12.00670447983221 0 0 0
353 118 1 0.5897 6.847832159997692 1.000434135795644 12.11127561041332 0 0 0
685 229 2 -1.1794 9.21524145637976 2.664722808722529 14.066885742595995 0 0 0
383 128 1 0.5897 8.8692305938617 1.5019849693349345 12.713157057561606 0 0 0
686 229 1 0.5897 8.706723771719052 2.4704954467493936 14.854275510301083 0 0 0
460 154 2 -1.1794 6.070245028906059 7.432749850436533 11.958046182837428 0 0 0
385 129 2 -1.1794 8.884653545806405 5.383561969033841 13.550325700588903 0 0 0
333 111 1 0.5897 5.764367516309867 5.574117695507816 12.419677722999488 0 0 0
462 154 1 0.5897 5.383586900948363 7.579098791665201 11.307333701225838 0 0 0
387 129 1 0.5897 9.133798230698385 5.700479685435392 12.68215384025087 0 0 0
490 164 2 -1.1794 9.02328542500452 7.859590504279093 11.95817272667757 0 0 0
791 264 1 0.5897 6.120954951112703 9.056934230851484 14.827796098894241 0 0 0
793 265 2 -1.1794 9.246481082574357 9.269945838264437 14.320019992810373 0 0 0
682 228 2 -1.1794 5.508319155690876 2.8283443489238285 14.402201439792774 0 0 0
384 128 1 0.5897 9.318940126015649 0.9518347735977533 11.376352562135445 0 0 0
794 265 1 0.5897 9.157867278852637 8.657290471925528 13.589948054830039 0 0 0
461 154 1 0.5897 5.834851038274443 8.00519135108957 12.688195286498496 0 0 0
705 235 1 0.5897 7.892368813513702 5.8368037094225915 15.240691460659933 0 0 0
377 126 1 0.5897 9.909320734056248 3.9923120408104262 10.42797798521071 0 0 0
491 164 1 0.5897 9.584285947297673 7.912105618377701 11.184355214461945 0 0 0
824 275 1 0.5897 8.030321182365432 8.807073163756597 15.52676542591223 0 0 0
330 110 1 0.5897 5.001161705311915 1.226439376400068 10.703361075523409 0 0 0
823 275 2 -1.1794 7.384710661039076 8.926416511185748 16.22337684275494 0 0 0
144 48 1 0.5897 5.36334193070218 8.458003532245513 20.874261709936057 0 0 -1
715 239 2 -1.1794 7.442914298090953 2.105016349692799 16.142872914330525 0 0 0
786 262 1 0.5897 6.6995020542698285 7.217780028557369 19.44944566169735 0 0 0
702 234 1 0.5897 9.592502102658957 4.084154680679705 17.618097967309616 0 0 0
716 239 1 0.5897 7.558762932934163 1.158819662402943 16.05680055641003 0 0 0
676 226 2 -1.1794 5.795993923210488 0.793036490964523 19.286180306679032 0 0 0
694 232 2 -1.1794 7.7685181251574855 4.231847808183009 18.02941867123582 0 0 0
706 236 2 -1.1794 8.758538169316306 0.8574296260492753 18.976948390874703 0 0 0
695 232 1 0.5897 7.626120759044897 3.4539915198240867 17.49015451057136 0 0 0
677 226 1 0.5897 5.431601210797567 0.9397952558982692 18.413286983887687 0 0 0
708 236 1 0.5897 7.807638020518413 0.889010941957192 19.082790924650777 0 0 0
657 219 1 0.5897 6.558354414319732 4.405326531130687 19.424513187086344 0 0 0
38 13 1 0.5897 8.960439801363803 2.0912114153225887 20.338518798134217 0 0 -1
696 232 1 0.5897 7.744766690047799 4.961001562531785 17.40979731000955 0 0 0
655 219 2 -1.1794 5.6892022759155365 4.524772240800309 19.80752365872395 0 0 0
703 235 2 -1.1794 7.341697190116815 6.039998821765161 15.99684050436925 0 0 0
816 272 1 0.5897 8.662616699695306 7.952626491297105 20.038025253951336 0 0 0
785 262 1 0.5897 5.4694432570306075 6.384181880395264 19.739642525214272 0 0 0
704 235 1 0.5897 6.449006712645381 5.868271771244694 15.696810880731007 0 0 0
814 272 2 -1.1794 8.574049435358042 7.332322047143976 19.314458310665717 0 0 0
784 262 2 -1.1794 5.751120223736283 7.281731583700362 19.56299515390031 0 0 0
815 272 1 0.5897 8.835421831558534 6.490268582278708 19.68698465295906 0 0 0
825 275 1 0.5897 7.235997003455292 8.045280381601346 16.566312242765648 0 0 0
710 237 1 0.5897 9.402323798341001 4.22676745443743 20.54347827859056 0 0 0
709 237 2 -1.1794 9.338959918760935 5.176544681223339 20.643577185970877 0 0 0
656 219 1 0.5897 5.083298629635842 4.346490938441136 19.08821132693525 0 0 0
707 236 1 0.5897 9.018771857229742 0.03395569537513109 19.389623418171286 0 0 0
797 266 1 0.5897 9.804947236742791 7.673377779328687 18.13034072247364 0 0 0
35 12 1 0.5897 5.419496702952324 1.7035193682105851 20.793976411141053 0 0 -1
285 95 1 0.5897 7.664139513871702 14.694800574525752 1.7508571732640592 0 0 0
231 77 1 0.5897 5.898581989220281 18.903714931782684 1.35924525907967 0 0 0
246 82 1 0.5897 5.244574174929287 13.915285607768274 4.504691461925528 0 0 0
274 92 2 -1.1794 8.522865242636001 13.850559563412137 4.824284389810238 0 0 0
254 85 1 0.5897 8.779245578128213 15.934430869870738 0.3699969768621043 0 0 0
154 52 2 -1.1794 8.012727484026152 10.565734963598306 3.963056208516835 0 0 0
165 55 1 0.5897 7.9966850873052415 12.260938393670925 2.5649155381327424 0 0 0
164 55 1 0.5897 6.906640794681909 12.485220649566264 1.5384262104737165 0 0 0
163 55 2 -1.1794 7.821575026206803 12.692712760856057 1.7287805945613985 0 0 0
156 52 1 0.5897 8.962803918349184 10.680071305864425 3.9364459029383703 0 0 0
263 88 1 0.5897 7.845070067077213 17.473918551846108 4.288246605367758 0 0 0
284 95 1 0.5897 7.746650036070162 16.153159791481094 2.1483464379725925 0 0 0
271 91 2 -1.1794 7.715508313233588 19.0795682353242 1.5108051712103963 0 0 0
272 91 1 0.5897 7.877375380456256 18.521238089126985 2.2712538765618984 0 0 0