#include		in.partitions
include		in.temp
variable        temperature equal 77.99
variable	tempDamp equal 100.0
include		in.pressure
variable        pressure equal 8286.5
variable        pressureDamp equal 1000.0 # This is 1 ps
include		in.seed
variable        seed equal 745823

units		real
atom_style	full
read_restart	restart.lmp.${pid}
read_restart	restart.lmp.1
Reading restart file ...
  restart file = 30 Jul 2021, LAMMPS = 30 Jul 2021
  restoring atom style full from restart
  orthogonal box = (0.041122880 0.019536385 0.016531488) to (24.688878 24.710465 22.793469)
  4 by 4 by 2 MPI processor grid
  restoring pair style lj/cut/tip4p/long/omp from restart
  restoring bond style harmonic/omp from restart
  restoring angle style harmonic/omp from restart
  1920 atoms
  1280 bonds
  640 angles
Finding 1-2 1-3 1-4 neighbors ...
  special bond factors lj:    0        0        0       
  special bond factors coul:  0        0        0       
     2 = max # of 1-2 neighbors
     1 = max # of 1-3 neighbors
     1 = max # of 1-4 neighbors
     2 = max # of special neighbors
  special bonds CPU = 0.002 seconds
  read_restart CPU = 0.007 seconds
include 	in.setup
variable	out_freq equal 1000
variable	out_freq2 equal 10000
variable	out_freq3 equal 1000

timestep	2.0

neigh_modify    delay 7 every 1

include		in.tip4p
# This is TIP4P/Ice

# create groups ###
group ox type 2
640 atoms in group ox
group hy type 1
1280 atoms in group hy

# set charges - beside manually ###
set group ox charge -1.1794
Setting atom values ...
  640 settings made for charge
set group hy charge 0.5897
Setting atom values ...
  1280 settings made for charge

# ### TIP3P Potential Parameters ###
pair_style lj/cut/tip4p/long/omp 2 1 1 1 0.1577 8.5
pair_coeff 1 1*2 0.000 0.000
pair_coeff 2 2 0.21084 3.1668
bond_style  harmonic
bond_coeff  1 450 0.9572
angle_style harmonic
angle_coeff 1 55 104.52
kspace_style pppm/tip4p/omp 1.0e-5
pair_modify tail yes

thermo          ${out_freq}
thermo          1000
thermo_style    custom step temp pe etotal epair emol press lx ly lz vol pxx pyy pzz pxy pxz pyz enthalpy

restart 	${out_freq3} restart.lmp.${pid} restart2.lmp.${pid}
restart 	1000 restart.lmp.${pid} restart2.lmp.${pid}
restart 	1000 restart.lmp.1 restart2.lmp.${pid}
restart 	1000 restart.lmp.1 restart2.lmp.1


include         in.dump
dump            myDump all atom ${out_freq2} dump.water.${pid}
dump            myDump all atom 10000 dump.water.${pid}
dump            myDump all atom 10000 dump.water.1
dump            myDump2 all dcd ${out_freq2} dump.dcd
dump            myDump2 all dcd 10000 dump.dcd
dump_modify     myDump append yes
dump_modify     myDump2 append yes


variable natoms 	equal  "count(all)"                        # NUMBER ATOMS
variable H      	equal  "enthalpy/v_natoms"                 # ENTHALPY-per-atom
variable Vol      	equal  "vol/v_natoms"                 # volume-per-atom
fix AVG all 		ave/time ${out_freq} 1 ${out_freq} v_Vol v_H file vol_enthalpy.dat
fix AVG all 		ave/time 1000 1 ${out_freq} v_Vol v_H file vol_enthalpy.dat
fix AVG all 		ave/time 1000 1 1000 v_Vol v_H file vol_enthalpy.dat




fix 		1 all shake 1e-6 200 0 b 1 a 1
       0 = # of size 2 clusters
       0 = # of size 3 clusters
       0 = # of size 4 clusters
     640 = # of frozen angles
  find clusters CPU = 0.001 seconds
fix             2 all nph aniso ${pressure} ${pressure} ${pressureDamp}
fix             2 all nph aniso 8286.5 ${pressure} ${pressureDamp}
fix             2 all nph aniso 8286.5 8286.5 ${pressureDamp}
fix             2 all nph aniso 8286.5 8286.5 1000
fix             3 all temp/csvr ${temperature} ${temperature} ${tempDamp} ${seed}
fix             3 all temp/csvr 77.99 ${temperature} ${tempDamp} ${seed}
fix             3 all temp/csvr 77.99 77.99 ${tempDamp} ${seed}
fix             3 all temp/csvr 77.99 77.99 100 ${seed}
fix             3 all temp/csvr 77.99 77.99 100 745823


run             250000
PPPM initialization ...
  extracting TIP4P info from pair style
  using 12-bit tables for long-range coulomb (../kspace.cpp:340)
  G vector (1/distance) = 0.37529824
  grid = 30 30 30
  stencil order = 5
  estimated absolute RMS force accuracy = 0.0031723906
  estimated relative force accuracy = 9.5535601e-06
  using double precision FFTW3
  3d grid and FFT values/proc = 5400 960
Last active /omp style is kspace_style pppm/tip4p/omp
Neighbor list info ...
  update every 1 steps, delay 7 steps, check yes
  max neighbors/atom: 2000, page size: 100000
  master list distance cutoff = 10.8154
  ghost atom cutoff = 10.8154
  binsize = 5.4077, bins = 5 5 5
  1 neighbor lists, perpetual/occasional/extra = 1 0 0
  (1) pair lj/cut/tip4p/long/omp, perpetual
      attributes: half, newton on, omp
      pair build: half/bin/newton/omp
      stencil: half/bin/3d
      bin: standard
Per MPI rank memory allocation (min/avg/max) = 10.56 | 10.56 | 10.57 Mbytes
Step Temp PotEng TotEng E_pair E_mol Press Lx Ly Lz Volume Pxx Pyy Pzz Pxy Pxz Pyz Enthalpy 
  500000    83.780507   -9861.2211   -9541.8116   -9861.2211            0    8017.3351    24.647755    24.690928    22.776937    13861.496    8641.7143    7597.3217    7812.9693   -526.01471   -179.70073   -293.34902   -7921.0616 
  501000     77.96815   -9863.8141   -9566.5639   -9863.8141            0    8605.4506    24.607423    24.680619    22.779667    13834.694    9092.1071    8494.7974    8229.4473   -672.25638    -55.21398    336.53397   -7830.2867 
  502000    76.674607   -9854.9252   -9562.6067   -9854.9252            0    8652.1585    24.617113    24.660673    22.783147     13831.07     8851.414    9228.8074    7876.2543   -480.86989   -339.12572   -505.23281   -7817.3628 
  503000    76.967766   -9858.7099   -9565.2737   -9858.7099            0    8527.9931    24.645688    24.712794      22.7112     13832.57    8776.7735    8444.8055    8362.4001    149.27296    15.389575    564.39633   -7844.8888 
  504000     75.87276    -9863.559   -9574.2974    -9863.559            0    8435.7632    24.759493     24.70561     22.62111    13837.296    7358.4193    8267.2379    9681.6325   -956.80887   -595.47004    122.51486    -7871.937 
  505000    77.099818   -9850.8542   -9556.9145   -9850.8542            0    9147.8705    24.628191    24.727832    22.689786     13818.12    9041.2986    9030.2945    9372.0184   -716.99196    488.43149    217.63632   -7713.4072 
  506000    79.340937   -9852.4183   -9549.9345   -9852.4183            0    8801.5434     24.69567     24.67345    22.694795     13828.56    7920.1771    8990.2007    9494.2523   -313.37429   -516.86382   -470.12641     -7774.88 
  507000    77.838913    -9870.772   -9574.0146    -9870.772            0    7750.5843    24.700183    24.651468    22.773061    13866.421    7666.9987    8281.9565    7302.7979   -777.68141   -132.78101   -495.47979   -8006.6331 
  508000      77.3395   -9867.0429   -9572.1894   -9867.0429            0    8596.8739    24.638125    24.619434    22.805247    13833.131    8382.9786    9448.2908    7959.3522    223.04363    243.62198   -355.88434   -7837.8387 
  509000    79.911051    -9859.883   -9555.2257    -9859.883            0    7763.7717    24.651411    24.708447    22.780556    13875.592     7807.696    7826.4949    7657.1242     -144.548    227.15719    313.43788   -7984.1389 
  510000    77.578776   -9858.6283   -9562.8626   -9858.6283            0    8335.8723      24.6983    24.732245    22.675287    13851.072      7890.01    8456.0944    8661.5125    -495.4712   -267.33648   -13.525629   -7878.9858 
  511000    79.123909   -9869.8912   -9568.2347   -9869.8912            0    8440.6935    24.647251    24.729017    22.700486    13835.998    7807.7568    8671.1004    8843.2232   -330.01599   -192.79251    619.17057   -7865.0392 
  512000     81.07745   -9858.6474   -9549.5432   -9858.6474            0     8734.122    24.640935    24.622396    22.805143     13836.31    8365.1183    9366.0151    8471.2327   -127.19731    247.96625   -396.61376   -7787.0988 
  513000    78.615296    -9856.947   -9557.2296    -9856.947            0     8213.294    24.643611    24.683676    22.782444    13858.445    8757.2246    8362.8644    7519.7929    188.70004      426.322   -264.33696   -7897.2309 
  514000    74.133984   -9865.3414   -9582.7088   -9865.3414            0    7950.6959    24.576791    24.752531    22.780035    13857.956    8455.8573    8014.8143    7381.4161    188.59719   -110.21368   -61.119389   -7975.8408 
  515000    78.403613   -9866.4009   -9567.4906   -9866.4009            0    8256.8065    24.694822    24.660491    22.739722    13848.182    7654.6858    8600.1881    8515.5457    194.90136   -103.74096    351.44671   -7899.9333 
  516000    79.512402   -9865.3201   -9562.1826   -9865.3201            0    8302.1719    24.682635    24.642626    22.759646     13843.44    9291.4346     8337.226    7277.8551   -186.25832   -646.00409   -212.03294   -7886.0374 
  517000    79.217757   -9862.0628   -9560.0486   -9862.0628            0     8224.731     24.60208    24.796822    22.698684    13847.409     9071.228    6806.1213    8796.8437    316.14165   -819.07026     123.2596   -7899.0621 
  518000    78.182774   -9878.1094    -9580.041   -9878.1094            0    7799.9682    24.710719    24.717134    22.691514    13859.481    7751.6585     7578.334    8069.9121   -383.23009   -89.288295    293.33289   -8003.4622 
  519000    79.192581   -9867.5143    -9565.596   -9867.5143            0    8937.7133    24.710549    24.689994    22.658527    13824.042    8403.1793    8710.3664     9699.594    367.95731    -601.9984    177.76396   -7763.6684 
  520000     76.99384   -9864.8972   -9571.3616   -9864.8972            0    8680.2883    24.639474    24.695541    22.744062    13839.424    8396.1606     8688.787    8955.9175   -175.49029  -0.83857316    172.83034    -7819.386 
  521000    79.407281   -9868.3424   -9565.6056   -9868.3424            0    9242.6845     24.61355    24.698683    22.707754     13804.55    8750.9914    9650.3977    9326.6644    24.639761    -18.09573   -36.339723   -7704.8203 
  522000    78.639466   -9854.2204   -9554.4109   -9854.2204            0      8805.54     24.61669    24.707286    22.757117    13841.143    9473.8803    8299.6374    8643.1022     74.97043   -651.39796    6.1269302   -7776.9345 
  523000    77.381961   -9871.1687   -9576.1534   -9871.1687            0    8836.3095    24.680983    24.673364    22.684462    13813.995    8825.5849    9619.5235    8063.8202   -587.92229   -170.41008   -74.799154   -7795.9644 
  524000    80.784547    -9854.747   -9546.7595    -9854.747            0    7897.9464    24.703631    24.761243    22.682933    13874.982    7567.5991    7491.8793    8634.3607   -25.401219   -244.14358    355.17172   -7948.5912 
  525000    79.039704   -9867.5987   -9566.2633   -9867.5987            0    7951.2894    24.783555    24.732373    22.600058    13852.844    7094.8974     7902.903     8856.068   -312.33267   -727.51327    28.735405   -7959.8681 
  526000    79.141124   -9859.2711    -9557.549   -9859.2711            0    7808.3961    24.686845    24.768988    22.680132    13868.179    7806.7511     7099.652    8518.7852   -423.66909     104.3968    382.15941   -7978.2762 
  527000    74.349018   -9849.9945   -9566.5421   -9849.9945            0    7985.7992    24.713916    24.704548    22.702967    13861.208    7478.8618    7920.2283    8558.3075    3.5422977   -943.98356    328.70987   -7952.2008 
  528000    77.314491   -9862.1179   -9567.3599   -9862.1179            0    8938.4545    24.639742      24.6775    22.743245    13828.967    8735.6029    8965.3107    9114.4499    103.83618   -133.91709    739.05551   -7764.6408 
  529000    76.402845   -9863.7467   -9572.4642   -9863.7467            0    8022.9924    24.716173    24.616815    22.786615    13864.139    7621.1611    8479.9024    7967.9137    21.741857   -737.27833    223.42903   -7950.2613 
  530000    79.325417   -9860.3874   -9557.9627   -9860.3874            0    8428.0748    24.648742    24.733467    22.704901    13842.017    8732.7448    7653.6207    8897.8587   -120.48998   -6.5882691    -323.6921   -7856.5737 
  531000     76.46817   -9837.9445   -9546.4129   -9837.9445            0    8912.6252    24.685289    24.733935    22.650436    13829.548    9028.7596    8214.6816    9494.4346   -292.50878   -703.71649   -242.70385   -7748.8276 
  532000    81.473958   -9871.4444   -9560.8285   -9871.4444            0     7798.037    24.647569    24.802957    22.694559    13873.923    8038.2094    7148.5805    8207.3211   -133.63319   -295.94491   -83.686164   -7982.9976 
  533000    76.317524   -9848.4867   -9557.5295   -9848.4867            0    8825.0599    24.727414    24.624336    22.706859    13826.119    8353.4934    9494.4937    8627.1925   -454.52781   -187.10758      616.011   -7778.0465 
  534000    75.642165   -9864.3834    -9576.001   -9864.3834            0    8923.9026    24.605879    24.733989    22.702471    13816.759    9222.3173    8982.5139    8566.8766   -314.39591   -698.49791    233.11383   -7777.8055 
  535000    76.773283   -9874.3255   -9581.6307   -9874.3255            0    8153.4732    24.703891    24.661603    22.720595     13842.24    7702.9508    8934.1224    7823.3465   -141.57863    65.854832    451.09552   -7935.6494 
  536000    77.946179   -9866.4794    -9569.313   -9866.4794            0     7956.766    24.726852    24.634577     22.76516    13867.068    6984.3542    8720.8159    8165.1278   -308.64694    290.26209   -229.25823   -7960.1608 
  537000    76.839603   -9858.4202   -9565.4726   -9858.4202            0    8070.8094    24.621405    24.698558    22.785337    13856.064    8050.4479    8442.2675    7719.7128    -177.2861   -62.977559    -288.4798   -7934.5519 
  538000    78.585151   -9861.2061   -9561.6037   -9861.2061            0    7408.4554     24.72441    24.724785    22.719548    13888.589    7426.8885    6895.4118    7903.0658   -94.730607    387.11607   -249.98729   -8061.0149 
  539000    76.654342   -9871.2795   -9579.0382   -9871.2795            0    7028.4214    24.744277    24.696097    22.743263    13898.114    6982.5712    7072.5249    7030.1681   -275.69814    45.013325    8.9131437   -8154.4493 
  540000    78.110983   -9869.3341   -9571.5394   -9869.3341            0    8168.6669    24.627308    24.689713    22.766715      13843.1    8566.8402    8337.9532    7601.2074   -173.92695   -931.60348    188.85275   -7922.3883 
  541000    74.730019   -9859.6835   -9574.7785   -9859.6835            0    9555.8927    24.687027    24.661035    22.655621    13792.916    9150.4304    9510.4345    10006.813   -132.97595    -929.6373   -28.097856   -7652.5579 
  542000    78.785434   -9874.3645   -9573.9984   -9874.3645            0    7544.5372    24.648038    24.687659    22.811539    13880.875    7621.3894    8117.3264     6894.896   -392.52139   -249.09052    726.53203    -8046.695 
  543000    79.805996   -9859.4964   -9555.2395   -9859.4964            0    9041.7353    24.619808     24.68787    22.738256    13820.553      9189.76    9082.5473    8852.8987   -136.66636   -106.75213   -314.82307      -7732.8 
  544000    76.785561   -9859.4245    -9566.683   -9859.4245            0    8285.7518    24.704742     24.70787    22.690537    13850.339    7775.7056    8713.1258     8368.424    399.35529     530.8535    276.46779   -7893.0192 
  545000    75.360704   -9876.2681   -9588.9588   -9876.2681            0    7693.0752    24.715325    24.723984     22.70734    13875.577    7292.0805    8069.8499    7717.2952    490.35154     545.3787    2.3335497     -8032.18 
  546000    77.838724   -9856.3003   -9559.5435   -9856.3003            0    7629.1144    24.697181     24.66002    22.817803    13896.794    6715.6849    8581.3951    7590.2631    387.31395   -133.42467    453.35343   -8013.3472 
  547000    78.236085   -9868.0854   -9569.8137   -9868.0854            0    8849.2292    24.622335    24.665706    22.764663      13825.6    9777.9321    8672.5646    8097.1908   -17.552696    -1200.125    514.06826   -7785.5242 
  548000    78.105394    -9871.414   -9573.6406    -9871.414            0    7489.3422    24.663257    24.764371    22.731751    13883.872    7621.8889    6824.8157    8021.3221    472.38142    163.30916   -37.001277   -8057.1834 
  549000     78.80749   -9861.9525   -9561.5024   -9861.9525            0    8185.7993    24.688985    24.724045    22.715679    13865.914    8116.6499    7797.6821    8643.0659   -317.59856   -593.10075    577.56867   -7906.1691 
  550000    78.592512   -9857.8431   -9558.2126   -9857.8431            0    8198.7833    24.665433    24.689385     22.76421     13862.82    8296.3248    8380.1866    7919.8385   -127.18109   -810.91245     124.7979   -7900.6235 
  551000    76.838222   -9855.8296   -9562.8872   -9855.8296            0    9243.2088    24.713885    24.569772    22.755995    13817.771    8338.2505    10578.264    8813.1116    340.88643   -576.54327   -22.976008   -7700.2142 
  552000    76.284402    -9856.763   -9565.9321    -9856.763            0    8035.4782    24.653931    24.781389    22.678178     13855.43    8541.3731    7456.3002    8108.7613    371.92619   -1044.5304    218.66682   -7942.2252 
  553000    77.606404   -9861.1541    -9565.283   -9861.1541            0    8625.8376    24.686553    24.718711    22.682686    13841.423    8732.0279    8131.7388     9013.746   -344.14176   -52.188427   -232.19195    -7824.046 
  554000    78.397697   -9861.2095   -9562.3218   -9861.2095            0    8249.7779    24.628613    24.727208     22.74158     13849.55    8527.8441    7690.9096    8530.5801     860.0923   -259.22277   -484.03552   -7896.0194 
  555000    79.127812   -9857.3059   -9555.6346   -9857.3059            0    8605.2665    24.650126    24.650431    22.785407    13845.239    8228.5033    9178.3225    8408.9738     170.5649   -285.91513    152.51553   -7818.0712 
  556000    77.478332    -9849.486   -9554.1032    -9849.486            0    8296.3053    24.675518    24.661639    22.773397    13858.494    8212.9847    8845.9087    7830.0226   -424.68009   -261.81154   -90.278634   -7877.3211 
  557000    76.947968   -9862.4011   -9569.0403   -9862.4011            0    7564.3056     24.71058    24.726572    22.714378    13878.665    7600.7004    7345.4553    7746.7611   -260.85408   -177.01171    815.25928   -8037.9788 
  558000    76.849623   -9866.4003   -9573.4145   -9866.4003            0     7947.212    24.625601    24.781296    22.706457    13856.713    8192.4253    7876.8518    7772.3587   -404.79236   -505.80345    -115.0253   -7967.3946 
  559000    78.296075   -9864.0696   -9565.5693   -9864.0696            0    8680.1594    24.666187    24.679447    22.717241    13829.072    8951.5633    8516.1533    8572.7615    31.574452   -745.98806   -114.04943   -7814.9301 
  560000     76.10128   -9863.4806   -9573.3478   -9863.4806            0    9802.4378    24.665615    24.659722    22.654882    13779.768    9886.7499    9567.4253    9953.1383   -119.28136   -233.64943     198.5518   -7603.4128 
  561000    76.130186   -9855.6704   -9565.4275   -9855.6704            0    9409.8259    24.705092    24.680831    22.640075    13804.609    8080.5299    9714.9297    10434.018    53.338714    221.37819    47.936807   -7670.9842 
  562000    78.125827   -9867.7483    -9569.897   -9867.7483            0    7989.4556    24.638355    24.741392    22.750461     13868.39     8449.751    7601.5744    7917.0414   -16.611726   -756.30776    219.32565   -7953.9798 
  563000    77.657472   -9849.7322   -9553.6665   -9849.7322            0    8245.0982    24.664885    24.646055    22.810095    13866.077    7733.6652    8841.4601    8160.1692    39.780367     -360.546    796.66622   -7886.3221 
  564000    78.872937    -9865.855   -9565.1554    -9865.855            0    8129.2471    24.644333    24.742479    22.720544    13854.122    8133.9955    8062.7746    8190.9711    523.19895    -564.0291    309.19545   -7922.6561 
  565000    77.905665   -9876.7283   -9579.7163   -9876.7283            0    8372.2125    24.670244    24.689998    22.723988    13841.369    8750.7075    8335.2536    8030.6763   -94.717248   -286.88591    285.94807   -7889.6834 
  566000    81.836648   -9860.4446    -9548.446   -9860.4446            0     7784.855    24.708761    24.696827     22.73889    13875.907    7522.5336    7884.8357    7947.1958   -518.19675    466.91674    439.70389    -7973.057 
  567000    75.346506   -9863.3697   -9576.1144   -9863.3697            0    8412.5617    24.705925    24.654634    22.730018    13845.207     8513.862    8615.8548    8107.9683   -297.06418   -136.51063   -175.95472   -7877.4656 
  568000    76.495946   -9868.5226   -9576.8851   -9868.5226            0    8218.3839    24.673748    24.748455    22.669738    13842.984    8242.4924    7951.7016    8460.9576   -28.879731    145.88561    94.653357   -7917.7107 
  569000    77.426808   -9874.7943    -9579.608   -9874.7943            0    8156.8751    24.719398    24.705246    22.668835    13843.831    7876.9795    7610.3986    8983.2472    230.39376    844.30521    103.27969   -7932.7506 
  570000    78.975871   -9876.1909   -9575.0988   -9876.1909            0     8363.033    24.650808    24.698932    22.731514    13840.051    8909.3574    8171.9136     8007.828   -642.87341   -194.67617    748.78697   -7887.0796 
  571000    79.265098    -9868.198   -9566.0033    -9868.198            0    8026.2498    24.625724    24.729946    22.745785     13852.02    8730.0822     7669.265    7679.4024   -67.089399    -476.8628   -692.54103   -7944.5604 
  572000    77.235841    -9855.188   -9560.7297    -9855.188            0    8009.9373    24.599316    24.687868    22.868717    13888.279    8361.2555    8585.6269    7082.9296    -281.0793   -272.61731   -12.746416   -7938.3466 
  573000    75.543277   -9876.5702   -9588.5647   -9876.5702            0    8349.6354    24.626037    24.659158    22.804672    13848.304    8388.8119    8723.1391    7936.9551   -379.97693    66.678568     395.5812   -7902.2447 
  574000    79.452054   -9859.7594   -9556.8519   -9859.7594            0    8795.2702    24.621709     24.64562    22.779853    13823.209    9560.6915    8644.0564    8181.0627   -287.17448   -72.006186   -270.57024   -7783.7491 
  575000    80.375329   -9859.2554    -9552.828   -9859.2554            0    8838.2239    24.645786    24.682791    22.741089    13834.013     8839.914    8679.1438    8995.6139    -295.6457   -89.569017   -57.998768    -7769.673 
  576000     79.69375   -9874.9109    -9571.082   -9874.9109            0    7293.0165    24.685036    24.778432    22.687643    13877.044    7408.5185    7245.3164    7225.2147    96.845781   -607.66833    7.7534847   -8095.1034 
  577000    75.956233   -9870.1354   -9580.5556   -9870.1354            0    8137.1642    24.741505    24.758818     22.62192    13857.519    7542.9056    7600.4747    9268.1123   -70.435893   -222.81488    632.45286   -7936.0535 
  578000    77.765297   -9851.3428   -9554.8661   -9851.3428            0     8503.989    24.643071    24.707187    22.739419    13845.144    8395.7327    8674.5274    8441.7069   -491.29057    37.112954   -379.03041   -7837.7642 
  579000    77.465787   -9867.6391   -9572.3042   -9867.6391            0    7901.9096    24.647617    24.702901    22.784851    13872.959    8570.2991    7151.2027    7984.2268   -113.86835   -218.58816    223.53418   -7973.5671 
  580000    77.979245     -9866.71   -9569.4176     -9866.71            0    7856.0141    24.725855    24.690929    22.712637    13866.163    7445.5697     7775.703    8346.7697    145.92347   -676.51917    818.77128   -7980.7449 
  581000    78.255444   -9858.7816   -9560.4362   -9858.7816            0    7889.2473    24.649941    24.788658    22.707875    13875.396    8137.7154    7269.3801    8260.6464   -334.38331   -389.88846    182.89476   -7963.9805 
  582000    77.046341   -9861.6719   -9567.9361   -9861.6719            0    8366.4052    24.617031    24.712221    22.751745    13840.831    8613.8288    8452.4712    8032.9158   -147.39895    95.923415   -205.82971   -7879.1411 
  583000    75.115505   -9871.2035   -9584.8289   -9871.2035            0    7742.0706     24.66681    24.702859    22.758607    13867.746    7513.0157    8104.8432    7608.3528   -86.295978   -456.23256    79.683132   -8019.0195 
  584000    79.046675   -9856.6816   -9555.3196   -9856.6816            0    8384.2206    24.730388    24.626007    22.735949    13846.436    7977.0531    8930.0261    8245.5826   -617.71265   -725.19492     1001.598    -7862.243 
  585000    75.370642   -9858.1504   -9570.8032   -9858.1504            0    7820.9809    24.700909    24.715218    22.703084    13859.968    7999.8474     7708.246    7754.8494   -475.94912    269.51362    416.79962   -7989.9215 
  586000    79.846995   -9872.2653   -9567.8522   -9872.2653            0    7774.5115    24.683523    24.744912     22.70725    13869.397    7922.2251    7716.2873     7685.022   -969.25918   -652.06407   -96.370698   -7995.2945 
  587000    78.754035   -9871.5015   -9571.2552   -9871.5015            0    7849.6799    24.690681    24.681532    22.755343    13867.193    7271.4107    8347.9688    7929.6603   -142.97546   -733.43632    708.19942   -7983.7454 
  588000    80.003356   -9856.0083    -9550.999   -9856.0083            0    8988.9227    24.621295    24.702196    22.729356    13823.996    8549.0287    9096.5397    9321.1998    437.81962   -384.41118    253.10704   -7738.7531 
  589000    77.277262   -9873.7136   -9579.0975   -9873.7136            0    8602.6128    24.689096    24.700212    22.666845    13822.829    8872.7015    8243.9722    8691.1648   -194.25921    270.87908    388.14922   -7844.8814 
  590000    79.567452   -9866.8678   -9563.5204   -9866.8678            0     7863.763    24.696062    24.672809    22.754186    13864.608    7753.4408     8021.021    7816.8271   -215.42127   -62.072363    35.098972    -7973.459 
  591000    77.344618   -9873.6807   -9578.8077   -9873.6807            0    7977.2329    24.611656    24.733358    22.765007    13857.717     8335.639    7745.6535    7850.4061   -339.16117   -571.04263    359.93327   -7966.6042 
  592000    80.535882   -9873.0849   -9566.0454   -9873.0849            0    7794.2664    24.634729     24.72951    22.763381    13867.561    8106.4812    7738.3403    7537.9777   -265.40913   -269.41887   -174.92572   -7989.7006 
  593000    79.016587   -9861.5602   -9560.3129   -9861.5602            0    8450.6646     24.65883    24.746783    22.669601    13833.596    8652.0315      7404.46    9295.5025   -118.02479   -449.43985    248.02166   -7855.4014 
  594000    77.663409   -9863.5141   -9567.4258   -9863.5141            0    7931.0045     24.69083     24.71839    22.698133    13853.069    7843.4805     7700.707    8248.8261    12.217401     -66.7356      322.452   -7965.1027 
  595000    74.142482   -9866.5497   -9583.8847   -9866.5497            0    8196.7689    24.634383    24.652438    22.797812    13845.057     8521.524    8811.6607     7257.122   -323.23944   -386.70888    321.19652   -7928.8263 
  596000    80.203723    -9871.974   -9566.2008    -9871.974            0    8291.5907    24.608712    24.711773     22.78244    13854.569    7885.4658    8598.2807    8391.0258    259.88234   -129.25966    249.37929   -7890.8461 
  597000    80.154224   -9868.2747   -9562.6903   -9868.2747            0    8176.9011    24.679749    24.658289    22.772214    13858.267    7834.4008    8066.5539    8629.7485    96.755879   -483.32004    242.88799   -7910.0682 
  598000    73.734357   -9868.8489     -9587.74   -9868.8489            0    8059.8618    24.650669    24.721962    22.734465    13854.677    8249.9517    8097.7867     7831.847    252.75802    188.85256    394.20275   -7959.1945 
  599000    78.155913   -9853.3469   -9555.3809   -9853.3469            0    9283.9376    24.673499    24.634445    22.719893    13809.558    8464.3183    10126.549    9260.9453    -131.4932   -682.51713     588.5468   -7685.6122 
  600000    78.090248   -9873.9785   -9576.2629   -9873.9785            0    8625.5314    24.669634    24.681262    22.715309    13830.845    7724.6694    9098.1674    9053.7575   -27.018539   -406.30018   -419.37792   -7836.4183 
  601000    78.605568   -9876.0832   -9576.4029   -9876.0832            0    7448.9366    24.765724     24.64587    22.724277    13870.281    6303.5726    8503.1203    7540.1171   -363.84808   -357.72312   -459.65356   -8069.6036 
  602000    81.798521   -9872.0343    -9560.181   -9872.0343            0    7951.7044    24.698671    24.700129    22.726831    13864.739    7722.9752    7918.1158    8214.0222    277.99988   -124.68833   -322.63178   -7952.3226 
  603000    77.034371   -9858.2261    -9564.536   -9858.2261            0    8328.1861    24.650022    24.755111    22.710298    13858.143    8213.0542    8713.3288    8058.1755    30.530978    169.39069    21.920018    -7881.353 
  604000    80.391194    -9872.749   -9566.2611    -9872.749            0    8982.3461    24.636111      24.7221    22.680791    13813.881    9530.5793    8236.5246    9179.9345   -350.55964    282.44144    69.007892   -7756.6661 
  605000    76.816137   -9858.8585   -9566.0003   -9858.8585            0    8047.9492    24.681607    24.656423    22.782804    13864.706    7955.3836    8445.6227    7742.8414    692.84476   -443.87813    133.09052   -7938.6847 
  606000    76.515008   -9861.9992   -9570.2891   -9861.9992            0    9340.5283    24.613912    24.708379    22.700185    13805.569    9259.6878    9148.8925    9613.0047   -431.83086   -347.14709     164.3639   -7689.6665 
  607000    78.897986   -9868.8824   -9568.0873   -9868.8824            0     8133.852    24.702537    24.710668    22.698544    13855.558     7940.967    8324.8736    8135.7153   -335.68265    422.92974   -15.829809    -7924.487 
  608000    79.030289   -9870.2548   -9568.9553   -9870.2548            0    8162.7047    24.655919    24.624896    22.815264    13852.275    7536.0635    9706.4583    7245.5922    151.89271   -577.75352   -378.02982   -7919.9157 
  609000    79.338935    -9876.437   -9573.9608    -9876.437            0    7722.8652    24.637778    24.692627    22.786111     13862.42    7540.4818    8072.9445    7555.1694   -194.27185   -302.33898   -264.24639   -8012.6356 
  610000    77.720268   -9874.3537   -9578.0486   -9874.3537            0    8082.0448    24.642535    24.679234    22.781124    13854.544    8484.3919    8430.3278    7331.4148    301.61736    -356.6087    341.36052   -7945.0366 
  611000    79.422989   -9871.6413   -9568.8447   -9871.6413            0    7901.9288     24.71386    24.669313    22.742693    13865.627     7585.165    8203.8238    7916.7974    433.78678    952.02904     221.3939   -7970.9487 
  612000    78.768905   -9865.4235   -9565.1205   -9865.4235            0    8612.0056    24.649712    24.717835    22.729092    13848.552    8386.1649    8817.3302    8632.5217   -470.80621   -10.728705    835.91237   -7825.7802 
  613000    79.128929   -9860.2626   -9558.5871   -9860.2626            0    9166.8115    24.712789    24.691402    22.632777    13810.371      8824.41    9085.5261    9590.4984   -419.46179    105.61666   -512.89122   -7712.2987 
  614000    79.856613   -9855.3136   -9550.8638   -9855.3136            0    7899.7925     24.68023    24.755079    22.726293     13884.88    7399.8391    8301.8484    7997.6899    30.498561   -814.57847    1141.3909   -7951.1816 
  615000     81.89004   -9863.5554   -9551.3533   -9863.5554            0    8312.9085     24.65332    24.694086    22.747195    13848.292    8268.4709    8002.0042    8668.2505    496.03097   -3.5716522     79.78988   -7872.4522 
  616000    77.028964   -9868.6438   -9574.9742   -9868.6438            0    8529.5136     24.71478    24.650936    22.713223     13837.86    7828.5392    9339.6491    8420.3524   -241.83233   -121.50451    341.79766   -7853.6246 
  617000    76.097318   -9869.3186   -9579.2009   -9869.3186            0    9005.1642    24.621553    24.729003     22.68568     13812.55    9422.8309    8123.6534    9469.0085   -35.693594    417.84327   -115.23709   -7765.1838 
  618000     76.22598   -9873.9088   -9583.3006   -9873.9088            0    8381.5832    24.693761    24.691944    22.701478     13841.93    7937.6919    8969.9823    8237.0756   -299.12751    27.499466    451.67359   -7891.3075 
  619000    77.238281   -9860.1523   -9565.6847   -9860.1523            0     7949.507    24.736271    24.668939    22.722093     13865.42    7544.6377    8226.7532    8077.1303    56.370937   -109.67651   -276.36159   -7958.1916 
  620000    77.317817   -9867.2823   -9572.5115   -9867.2823            0    8066.9636    24.625379    24.726089    22.773238    13866.381    7700.7251    8429.5699    8070.5959   -681.15858    357.82909   -292.39008   -7941.1541 
  621000    76.284947   -9866.1565   -9575.3235   -9866.1565            0    7764.3448    24.620213    24.753157    22.756832    13868.651    8135.4253     7619.256     7538.353   -209.75312   -725.66192     662.6036   -8004.9067 
  622000    79.763457   -9858.9184   -9554.8237   -9858.9184            0     8680.127    24.737465    24.583963     22.73124    13823.888    8042.2691    9415.0617    8583.0501    66.503222   -64.447153    246.40087   -7804.8473 
  623000    77.552571   -9873.8065   -9578.1407   -9873.8065            0    8053.0951    24.661915    24.702131    22.750931    13859.909    7975.4054    7993.5901    8190.2897    275.09152   -373.22923     129.6324    -7950.348 
  624000     80.04468   -9860.9973   -9555.8304   -9860.9973            0    8489.3922    24.582153    24.769364    22.728681    13839.136    9609.9375    7650.0138    8208.2252   -195.81615   -823.39506     506.1186   -7842.4197 
  625000    80.438333   -9857.3095   -9550.6419   -9857.3095            0    8727.2509     24.74209    24.566716    22.750466    13828.459    7246.6316    10068.028    8867.0927     146.8714    303.88394   -161.17451   -7790.5832 
  626000    79.613569   -9868.8696   -9565.3464   -9868.8696            0    8878.2869    24.600343    24.714907    22.736572    13823.727    9301.9155    8418.3152    8914.6298   -79.916831   -267.23298    246.30093   -7775.4404 
  627000    77.376472   -9855.7445   -9560.7501   -9855.7445            0    8542.6359    24.657142    24.724682    22.707284    13843.269    8768.2308    8068.7432    8790.9336   -204.24783   -939.87966   -550.23446   -7836.0784 
  628000    76.924207   -9864.3163   -9571.0461   -9864.3163            0    8499.7696    24.696023     24.72906    22.661348    13839.499    8504.4061     8521.927    8472.9758   -442.69878   -229.12517    844.04121   -7855.4959 
  629000     78.57868   -9860.3963   -9560.8185   -9860.3963            0    8725.4405    24.705207    24.673919    22.687632    13829.797    8482.6527    8919.4575    8774.2112    641.17835   -134.14478    536.65972   -7800.9548 
  630000    77.685849   -9874.3045   -9578.1306   -9874.3045            0    8645.7109    24.608761    24.708303    22.762714    13840.657    9204.1735    8008.4436    8724.5157   -99.201335    -174.0108    306.77622   -7832.9784 
  631000    75.679756   -9867.1004   -9578.5746   -9867.1004            0    8202.1952    24.625625    24.657872    22.810646    13850.978    8583.1578    8206.6212    7816.8067   -128.83924    68.844575    45.539516   -7921.7122 
  632000    76.557083   -9859.6758   -9567.8053   -9859.6758            0    8675.3914    24.617951    24.703882    22.753413    13837.692    9728.3446    7837.5459    8460.2836   -5.4747957    174.81196   -566.60836   -7817.0372 
  633000    75.466817   -9861.4429    -9573.729   -9861.4429            0     8214.472    24.640101    24.735439     22.72878    13852.821    8065.6861    7859.4252    8718.3046   -758.39916    544.62293    376.78851   -7914.1659 
  634000    77.910834    -9873.617   -9576.5854    -9873.617            0    8756.4475    24.663584    24.602529    22.788159    13827.548    8807.3548    9484.3253    7977.6622     17.48544   -48.373526    465.73163   -7810.7549 
  635000    79.121871   -9887.5338   -9585.8851   -9887.5338            0     7663.269    24.621393    24.685121    22.822491    13871.101    8105.4922     7961.989    6922.3258    35.323675   -156.94076   -238.98083   -8035.6382 
  636000    78.056291   -9862.2827   -9564.6965   -9862.2827            0    8487.2247    24.696209    24.691109    22.709893    13847.966    7655.7553    8342.4187    9463.5002   -243.04803   -602.16808   -661.93985   -7850.6304 
  637000    78.807712    -9876.166   -9575.7151    -9876.166            0    8465.9938    24.693989    24.773559    22.618795    13837.229    7955.6466    7629.8623    9812.4723   -182.74801    633.49727    354.64435   -7867.2624 
  638000    78.395788   -9864.9733   -9566.0928   -9864.9733            0    8193.6584    24.730366    24.686592    22.690836    13852.947    8135.2496    8116.4013    8329.3243    114.49919   -602.10959    280.73432   -7910.7195 
  639000    75.207753   -9868.2941   -9581.5678   -9868.2941            0    8049.8193    24.660613    24.693088    22.763189    13861.569    7667.3725    8089.3267    8392.7587   -104.31465    -151.1093   -587.62035   -7954.2424 
  640000    75.884599   -9853.9557    -9564.649   -9853.9557            0     8513.612    24.643035    24.676521    22.749244    13833.915    9607.4906    7971.1458    7962.1997   -300.79136    528.12872    831.63498   -7846.9983 
  641000    75.364796    -9862.001    -9574.676    -9862.001            0     8627.824    24.586864    24.613176    22.853527    13830.059    9179.3237    9355.3899    7348.7584    -317.7495   -229.93229    646.82197   -7834.4679 
  642000    76.509766   -9867.2385   -9575.5484   -9867.2385            0    8624.2207    24.607092    24.704655    22.742442    13825.352    9506.2435    8140.8213    8225.5974   -740.69233   -95.296341    152.71315   -7836.6591 
  643000    75.124179   -9857.0191   -9570.6114   -9857.0191            0     8052.356    24.698281    24.718816     22.70841    13863.763    7856.8417    7686.8708    8613.3556    143.07456    721.94448   -153.41061   -7942.5156 
  644000    80.042842   -9873.7752   -9568.6154   -9873.7752            0    8642.9621     24.61719    24.727196    22.699762    13817.665    8931.8357    8096.7856    8900.2651   -375.20001    270.25925    8.5278485   -7826.9162 
  645000    81.624441   -9862.8287   -9551.6391   -9862.8287            0    8178.7701    24.674429    24.701393    22.750447    13866.233    8622.8836     8024.744    7888.6827   -371.18149    218.68387    56.374431   -7897.6891 
  646000    77.692612   -9861.8056   -9565.6059   -9861.8056            0    9172.1748    24.680359     24.63941    22.701439     13804.96    8795.4197     9654.006    9067.0986      111.886   -215.77861   -308.67767   -7718.9612 
  647000    79.124919   -9872.5376   -9570.8774   -9872.5376            0    9024.4409    24.656849    24.709566    22.685342    13821.272    8523.3241    8836.3481    9713.6505   -311.37171   -46.612055    299.23253   -7751.8291 
  648000     76.51389   -9867.6803   -9575.9744   -9867.6803            0    9278.1078    24.641941    24.681917    22.685638     13797.64    9207.3854    9282.3095    9344.6285     7.266367   -449.00213    48.426201   -7708.9925 
  649000    78.108919    -9867.102   -9569.3152    -9867.102            0    7806.6891     24.68421    24.696607    22.755873     13872.35    7795.2013      8112.91    7511.9562    125.58231   -12.490971     -101.088   -7989.9128 
  650000     77.12317   -9868.7808   -9574.7521   -9868.7808            0    8262.8316    24.622983    24.639678    22.831765    13852.086    8477.5858    8650.4373    7660.4717    20.966606    142.35811   -5.1169327   -7905.5075 
  651000    79.589006   -9865.5962   -9562.1666   -9865.5962            0    8998.4365    24.635465    24.689196    22.727744    13823.692    8466.2593    8814.8092    9714.2411   -731.23387    121.13852   -115.01254   -7748.0425 
  652000    76.635105   -9860.2285   -9568.0605   -9860.2285            0    9212.1111    24.731117    24.585829    22.705922    13805.996    8432.7809    10443.182    8760.3704   -142.04547   -173.58209   -265.55885   -7713.2362 
  653000     77.21853   -9860.5553   -9566.1631   -9860.5553            0    8028.0539    24.631432    24.758221      22.7429    13869.313    8026.2277    8054.4626    8003.4716    213.09746   -67.550091   -710.24955    -7942.331 
  654000    75.974669    -9870.447   -9580.7969    -9870.447            0     8123.382    24.706893    24.658774    22.744821    13857.094    7454.3062    8968.6386    7947.2013   -90.590462    245.04139    20.251578   -7939.1305 
  655000    77.822186    -9869.936   -9573.2424    -9869.936            0     7572.091    24.711263    24.732575    22.717579    13884.375     7106.119    7907.4008    7702.7533   -440.56008     155.4203    668.18755   -8039.9745 
  656000    74.579899   -9884.3528   -9600.0202   -9884.3528            0    7803.2794    24.633223    24.722168     22.76876    13865.871    8000.4842    7446.0509     7963.303    -87.05358   -576.62562   -390.05505   -8022.0449 
  657000    77.833589   -9867.6322   -9570.8951   -9867.6322            0     8453.071    24.740561    24.657138    22.681756    13836.584     8161.186    8115.4439     9082.583   -341.21117   -1090.2431     329.2325   -7865.1298 
  658000    77.987512   -9861.7915   -9564.4676   -9861.7915            0    8470.4797    24.607338    24.736709    22.734208    13838.416    8273.1024    8448.1052    8690.2316    24.551883    213.51737    348.57695    -7854.963 
  659000    78.104954    -9855.126   -9557.3543    -9855.126            0    8589.1988    24.757002    24.623769    22.701535    13839.099    7759.9526    9231.9867    8775.6571   -524.90064    87.411856    231.22886   -7823.8044 
  660000    78.487835   -9869.3884    -9570.157   -9869.3884            0    8243.4435    24.633042    24.721906    22.750119    13854.271    8650.1018    7676.6543    8403.5743   -146.76688   -322.44527    16.656176   -7904.5666 
  661000    75.281011   -9870.7667   -9583.7611   -9870.7667            0     8364.667    24.606404    24.746318    22.725003    13837.661    8950.5888     7884.999    8258.4132   -545.23789   -373.82728    149.24627   -7895.7036 
  662000      77.8217   -9867.1844   -9570.4926   -9867.1844            0    8489.8797    24.699576        24.69    22.679011    13830.399    7926.7147     8807.212    8735.7125    248.49175    113.90106    267.19939   -7858.0652 
  663000    80.368279   -9866.3018   -9559.9013   -9866.3018            0    8647.6125    24.643356     24.63038    22.784223    13829.459    8555.0463    9086.3569    8301.4342   -105.25639   -624.02428    55.647426   -7815.7775 
  664000    77.607228   -9874.7527   -9578.8785   -9874.7527            0    8099.4221    24.580536    24.753832    22.772802    13856.395     8435.968    8194.8656    7667.4328   -323.07207    209.69931   -241.84579   -7942.1367 
  665000    79.319374   -9869.7623   -9567.3607   -9869.7623            0    8110.0076    24.702448    24.698972    22.698925    13849.183    7955.4683    7928.5912    8445.9634    45.678675    -864.0656   -225.07481   -7929.3327 
  666000    77.066962   -9854.6263   -9560.8119   -9854.6263            0    8006.4229    24.638453    24.779345    22.712515    13866.552     8290.318    7591.9528     8136.998   -242.39461     228.0304   -10.673527   -7941.6774 
  667000    74.387959   -9870.2231   -9586.6223   -9870.2231            0    8269.9879    24.644921    24.692907    22.755865     13848.19     8407.781    8455.1456     7947.037     327.6158   -84.296116    267.92034   -7916.4019 
  668000     76.73329   -9847.3946   -9554.8523   -9847.3946            0    7616.9314    24.699921     24.67853    22.776271    13883.453    7088.9586    8062.0201    7699.8155   -473.97637   -106.61535   -119.00419   -8012.6071 
  669000    79.730768   -9875.4677   -9571.4977   -9875.4677            0    7652.4485    24.642472     24.75389    22.752244    13878.801    8148.7651      7089.45    7719.1305    -90.90947   -55.077744   -308.93903   -8022.5802 
  670000    77.693894   -9870.6111   -9574.4065   -9870.6111            0    7444.6835     24.67254    24.742758     22.72034    13870.011    7799.8827    7051.6915    7482.4763   -527.44067   -522.42966    110.39485   -8068.4968 
  671000    78.132573   -9868.1873   -9570.3103   -9868.1873            0    8436.0623    24.710279    24.710505    22.666204    13840.063    8307.2042    8098.1032    8902.8795    45.739335   -853.03207    289.70623   -7867.5491 
  672000    77.222526   -9864.1504    -9569.743   -9864.1504            0    8681.2049     24.61877    24.791674     22.65918    13829.815    8646.9042     8035.864    9360.8464   -377.15805   -20.372259    969.40622   -7818.7989 
  673000    76.240437   -9858.1507   -9567.4874   -9858.1507            0    8474.5895    24.648786    24.637839    22.788338    13839.194     8818.427    8814.0443    7791.2973    143.35893    262.89262    24.929276   -7857.0572 
  674000    77.626728   -9869.5638   -9573.6153   -9869.5638            0    8682.3996    24.693078    24.610291    22.761283     13832.12    8756.7358    8645.7301     8644.733   -219.92157    544.52378    5.8649231   -7822.1385 
  675000    77.624141   -9864.5696   -9568.6309   -9864.5696            0    8205.9539    24.602441    24.769659    22.723563    13847.605    8497.7665    7922.5104    8197.5847   -72.990469   -1138.2516     468.9908    -7911.413 
  676000    75.068736    -9864.258   -9578.0617    -9864.258            0    7802.7808    24.716251    24.729988    22.689641    13868.648    7438.5662    7884.4672     8085.309   -305.52854    603.80102    1022.6079   -7999.8712 
  677000    76.214671   -9858.1805   -9567.6154   -9858.1805            0    7763.5204    24.701618    24.671979    22.754011    13867.154     7415.674    8284.1303    7590.7568   -668.65502    114.77668      299.901   -7997.5349 
  678000    79.823276   -9874.5449   -9570.2222   -9874.5449            0    8436.9628    24.742605    24.616138    22.728817    13843.381    7664.5664    9273.4489    8372.8732    352.42909     48.60034    188.78711    -7866.871 
  679000     79.37988   -9871.0883    -9568.456   -9871.0883            0    9319.2585    24.617226    24.746677    22.659458    13804.018    9477.5516    8755.0163    9725.2076    85.987856   -341.67648    185.83444   -7692.3267 
  680000    77.765054   -9872.6847   -9576.2089   -9872.6847            0    8373.0581    24.670627    24.724196     22.68986    13839.939    8494.7904    8173.8793    8450.5046   -74.690073    47.257982    264.74477   -7886.1799 
  681000    77.363013   -9865.0297   -9570.0866   -9865.0297            0    8483.2133    24.696257    24.670784    22.719429    13842.403    8032.6643    8313.1039    9103.8718   -39.302794   -475.86932    337.97576   -7857.5188 
  682000    78.257374   -9857.9233   -9559.5705   -9857.9233            0    8221.6059    24.604022    24.722282    22.779327    13855.925    8831.4209     8438.818     7394.579    52.011122   -574.66172    326.82272    -7898.194 
  683000    77.226477   -9862.2459   -9567.8234   -9862.2459            0    8741.6304    24.674292    24.658773    22.746216    13839.657     8067.984    9099.3686    9057.5385    259.16349    389.47912   -478.06653   -7803.4372 
  684000    78.733901   -9861.6365    -9561.467   -9861.6365            0    8606.6807    24.705723     24.68073    22.677706    13827.851    8100.6172    9072.5444    8646.8805   -165.89737   -66.182436   -83.358184   -7825.8005 
  685000     79.17433   -9850.0533   -9548.2047   -9850.0533            0    8742.9865    24.670805    24.722144    22.675235     13829.97    8344.4058    8948.7173    8935.8364   -46.681201   -741.65367    573.56519   -7784.7798 
  686000    80.443341   -9865.4765   -9558.7898   -9865.4765            0    7525.8622    24.704381    24.730599    22.714281    13877.384    7328.9285    7205.6673    8042.9908    -441.1016    456.29802    125.26389     -8035.65 
  687000    76.562124   -9876.7032   -9584.8134   -9876.7032            0    8165.0492    24.637308    24.654644     22.79125    13843.954    8351.6463    8616.8226    7526.6787    87.292443    -46.25798    253.77125   -7936.2911 
  688000    78.450929   -9858.9774   -9559.8867   -9858.9774            0    7993.9646    24.647439    24.702865    22.781134    13870.575    8415.0369     7718.291    7848.5658   -165.89345   -646.58113    555.50321   -7942.8027 
  689000    75.772847   -9870.3191   -9581.4385   -9870.3191            0    8438.4106    24.695308    24.666195    22.708013    13832.343    8520.9545    8304.7853    8489.4918   -447.57966    318.41199    365.04657   -7879.1534 
  690000    81.872173   -9867.0979   -9554.9639   -9867.0979            0    8213.9896    24.747566    24.752374    22.621575    13857.095    7835.2174     8045.491    8761.2603   -560.91903   -36.726875    137.81786   -7894.9863 
  691000    78.146933   -9861.1882   -9563.2564   -9861.1882            0    8482.3222    24.667953    24.666452    22.744106    13839.126    8068.4219    8777.0134    8601.5313   -210.24312    357.64162    65.306387   -7851.2739 
  692000    80.463154   -9868.6096   -9561.8474   -9868.6096            0       7838.3    24.653523    24.663549    22.809346    13869.071    7940.5998    8057.1772     7517.123   -42.643319    54.730355    45.744616   -7976.4244 
  693000    79.312357   -9873.2543   -9570.8794   -9873.2543            0    7932.3207    24.654732    24.663374    22.785642    13855.239    7795.3588    8593.3136    7408.2898   -246.80114    640.99545    408.49325   -7968.0394 
  694000    78.155608   -9870.8422   -9572.8774   -9870.8422            0    8314.0772    24.700758    24.668496    22.724979    13847.024    8311.4175    8009.1375    8621.6765   -42.024707    41.205044   -136.64366   -7893.8941 
  695000    77.102456   -9862.6136   -9568.6638   -9862.6136            0    7920.4825     24.63694    24.748875    22.715799    13850.653    8215.2564    7443.4181     8102.773    287.20759   -295.63599   -207.42626   -7968.7456 
  696000    77.210006   -9850.7278    -9556.368   -9850.7278            0    9062.4571    24.564743    24.658816    22.807535    13815.379    9602.0788    9291.5228    8293.7696   -115.78752   -175.53317   -679.38234   -7730.4358 
  697000    80.490961   -9876.3659   -9569.4977   -9876.3659            0    8278.8933    24.646318    24.668016    22.758909    13836.865    8508.3394    8548.8029    7779.5376     549.9461    64.233305    772.29605   -7898.8461 
  698000    79.473246   -9867.2684   -9564.2801   -9867.2684            0    7875.6199    24.682281    24.722005    22.716587    13861.558    8060.7423    7612.2094    7953.9082   -716.03568   -486.54486    320.20916   -7972.1715 
  699000    79.827842   -9861.4099   -9557.0698   -9861.4099            0    8328.6614    24.658949    24.770579    22.675374    13850.492     8777.173    7053.8967    9154.9146    99.199004   -318.23376   -322.62158   -7874.7201 
  700000    78.064566   -9869.2869   -9571.6691   -9869.2869            0    7572.1855    24.716726    24.714775    22.725814     13882.48    7614.9014    7757.8344    7343.8206   -103.79595   -508.42124    665.62115   -8038.5914 
  701000    80.869348   -9866.0621   -9557.7513   -9866.0621            0    8349.4345     24.67292    24.694673    22.721896    13844.217    8275.8254    8419.7985    8352.6797    153.43507   -802.16513    189.75684   -7871.9695 
  702000    79.125768   -9870.4135     -9568.75   -9870.4135            0    8803.4795    24.635088      24.6404    22.766603    13819.747    9066.5508    8939.1772    8404.7103    81.362818    3.0743133    368.25378   -7794.4365 
  703000     78.17147   -9881.3073    -9583.282   -9881.3073            0    7783.7575    24.618969    24.732499    22.780203    13870.607    8005.6505    7857.1637    7488.4582   -321.10698    31.199445    106.23183   -8008.7168 
  704000    78.953446   -9862.7161   -9561.7095   -9862.7161            0    8501.9264    24.670146    24.696433    22.715896    13839.991    8511.7228    8241.6482    8752.4083    289.29886    440.83282    -486.8019    -7845.663 
  705000    77.986326   -9874.8119   -9577.4924   -9874.8119            0    8044.4033    24.665845    24.679653    22.750182    13849.048    8022.7458    8591.4406    7519.0235    -439.3345   -69.396276    161.00918   -7952.7308 
  706000    76.269162   -9882.2428   -9591.4699   -9882.2428            0    8164.6542    24.550532    24.706111    22.828467    13846.565    8563.0546     7741.883    8189.0249     59.25434   -110.64991    243.67604   -7942.7164 
  707000    77.009678   -9858.2913   -9564.6953   -9858.2913            0    8631.2273    24.660511    24.678683    22.724047    13829.604    8183.2995    9383.5797    8326.8027   -65.506521   -238.06149    147.85913    -7823.858 
  708000    77.126456   -9859.2194   -9565.1782   -9859.2194            0    8801.2617    24.675982    24.665113    22.720932    13828.774    8786.0315    9154.4214    8463.3323    597.75197   -901.05494   -225.45662    -7790.153 
  709000    76.495446   -9848.1455     -9556.51   -9848.1455            0    8568.0438    24.706905    24.713665    22.662783    13837.854     8531.231    7929.0481    9243.8523    57.573458   -1267.1145   -188.48379   -7827.3853 
  710000    77.779724   -9855.2613   -9558.7296   -9855.2613            0    9191.8405    24.692181    24.641442    22.706402    13815.732    8987.5481    9488.4589    9099.5146    26.026826   -976.40461    35.648475   -7706.6815 
  711000    78.189919   -9857.2255   -9559.1299   -9857.2255            0    8675.6343    24.601289     24.71486    22.765915    13842.073    9228.1743    7775.6204    9023.1082     63.46364   -53.363251   -243.97599   -7807.7585 
  712000    77.943768   -9870.2088   -9573.0516   -9870.2088            0    7915.8169    24.664951    24.705688    22.769228    13874.761    8301.2352    7822.0478    7624.1676    -525.2748   -441.55753   -264.05766   -7971.2928 
  713000    77.951082   -9868.1261    -9570.941   -9868.1261            0      8702.81    24.697749    24.707914    22.659847    13827.715    7965.6146    9207.3918    8935.4235    132.67696    57.159865    371.84744   -7815.9059 
  714000    78.165004   -9863.4297    -9565.429   -9863.4297            0    7964.0954     24.70411    24.658703    22.750444    13858.918    7713.6111    8667.0825    7511.5927    146.80104   -481.17731   -104.91648   -7955.7412 
  715000    76.027255   -9859.9907   -9570.1401   -9859.9907            0    8943.4797    24.673819    24.614646    22.762639    13824.601    8444.3626    10176.354    8209.7219   -376.09727   -469.72978    -17.39828   -7766.9771 
  716000    77.291144   -9869.1473   -9574.4782   -9869.1473            0     8745.951    24.648777    24.747829    22.663367    13824.738    8567.9901    8342.6844    9327.1785   -362.33373    331.81234    184.50181   -7811.1228 
  717000    78.430021   -9862.5126   -9563.5016   -9862.5126            0    7722.0568    24.619258    24.752965    22.760779    13870.411    7984.2738    7385.0856     7796.811   -79.459454   -224.35029   -474.94229   -8001.4399 
  718000    78.701397   -9865.5142   -9565.4686   -9865.5142            0     8603.649    24.676244    24.652749    22.731157     13828.21    8935.8268    8805.7785    8069.3415   -625.44584    144.37314    246.82693   -7830.3685 
  719000    75.380447   -9866.5833   -9579.1986   -9866.5833            0    8745.9466    24.675809    24.692991    22.683396    13821.436    8857.8206    8818.1698    8561.8495   -184.76243   -512.42508    478.90244   -7816.2653 
  720000    75.448803   -9853.9805   -9566.3353   -9853.9805            0     8297.111    24.714535     24.71246    22.667218    13844.161    7939.5309    8946.3691     8005.433    467.13828    92.600337   -469.28344   -7891.1246 
  721000    77.569635   -9868.4952   -9572.7644   -9868.4952            0    7757.8071    24.630863    24.745048    22.761286    13872.819    8229.0274     7317.541    7726.8527   -246.89142   -985.38755   -263.99077   -8003.1984 
  722000    78.121303   -9876.5237   -9578.6897   -9876.5237            0     7623.766     24.72217    24.666794    22.732045     13862.38     7412.558    7475.7229     7983.017   -84.381273    187.38079    304.07339   -8037.4036 
  723000     75.87954   -9858.3342   -9569.0468   -9858.3342            0    8261.7189    24.663223    24.723263    22.706424    13845.364     8004.365    8153.5521    8627.2398   -257.67146   -125.29798   -52.853736    -7900.837 
  724000    80.997663    -9853.171    -9544.371    -9853.171            0    9083.4435    24.680196    24.620191    22.748289    13822.568    8586.3323    9926.5057    8737.4925   -145.35565     410.1793    -194.4446   -7713.2579 
  725000    78.220077   -9865.5674   -9567.3568   -9865.5674            0    8852.1507    24.640948     24.67314    22.735503    13822.494     8924.453    8843.0485    8788.9506    130.88955   -140.17612   -393.71885   -7782.8792 
  726000    75.862844   -9859.4902   -9570.2665   -9859.4902            0    7901.7071    24.692371     24.71871    22.713852    13863.707    7335.5343    8379.4823    7990.1046   -296.51165   -482.23918    302.47371   -7972.6365 
  727000    79.390995   -9863.7126   -9561.0379   -9863.7126            0    8614.6097    24.705337    24.743232    22.642284        13841    8276.6132    8074.7326    9492.4834    281.03537   -555.86782    38.966806   -7822.1205 
  728000    80.000057   -9863.4284   -9558.4317   -9863.4284            0    8307.6207     24.71242    24.709469    22.676391    13846.902    7873.3393    8661.0342    8388.4887   -132.65539    54.117605    488.18777    -7880.767 
  729000    76.739412   -9863.6097   -9571.0441   -9863.6097            0    8418.1239    24.652292    24.722266    22.696453    13832.592     8495.115    8277.9792    8481.2776   -6.3215841   -875.56971    519.56463   -7872.8208 
  730000    77.808552   -9864.4288   -9567.7871   -9864.4288            0    8150.3888     24.71279    24.674444    22.728858    13859.475     7781.372    8155.6421    8514.1524   -190.87528   -285.06667    579.13388   -7920.3798 
  731000    81.339981   -9869.2708   -9559.1656   -9869.2708            0    7688.7408    24.639534     24.79935    22.692026    13865.836    8478.6648     6655.772    7931.7855   -17.668036    -21.94037    213.07943   -8004.3562 
  732000    78.345118   -9862.0083    -9563.321   -9862.0083            0    7873.3542    24.715989     24.73458    22.681721    13866.234    7720.9287    6945.3576    8953.7763   -359.66475    74.005529   -383.73436   -7971.1335 
  733000     81.36098   -9864.3855   -9554.2003   -9864.3855            0      8414.96    24.715586    24.723832     22.65139    13841.449    7830.4935    8356.1996    9058.1869    414.17807   -317.01622   -965.73263   -7855.5285 
  734000    78.239127   -9857.8053   -9559.5221   -9857.8053            0    8500.2892    24.680314    24.724748     22.69413    13848.288    8344.4028    7981.2006    9175.2641   -5.0185793    802.72434    567.63495   -7842.7775 
  735000    76.636926    -9868.087   -9575.9121    -9868.087            0    8325.2981    24.651548    24.680157    22.757222    13845.586    8777.2192    8251.9105    7946.7645   -179.55724    298.72663   -368.30557   -7894.8373 
  736000    80.790571   -9873.6585    -9565.648   -9873.6585            0    7536.6164    24.716511    24.721949    22.709688    13876.535    7094.0966    7427.1783    8088.5743   -330.68617    -1179.521    191.76306    -8040.425 
  737000    77.388478   -9866.0509   -9571.0107   -9866.0509            0    8524.3096     24.69639    24.735983    22.628242    13823.355    7661.2055    8435.7253    9475.9979   -139.67376   -541.03328    87.661754   -7852.5145 
  738000    80.584188    -9860.473   -9553.2493    -9860.473            0    7672.7526    24.719739    24.686513    22.735328    13874.101    7617.5691    8271.9895    7128.6993    73.989609    368.05135     780.5786   -8000.7481 
  739000    76.518587   -9853.5421   -9561.8184   -9853.5421            0    8404.9337    24.607732    24.758493    22.725143    13845.301     8890.206    8090.2625    8234.3326   -95.918052   -275.03871    706.27838   -7864.6982 
  740000    79.535157    -9861.428   -9558.2037    -9861.428            0    8105.0731    24.755413    24.647217    22.717174     13860.93    7346.7102    8714.5456    8253.9636   -10.134378   -898.20905   -85.924665   -7919.7839 
  741000    79.615208   -9860.9328   -9557.4033   -9860.9328            0    8810.0233    24.613634    24.708687    22.728871     13823.03    8923.7652    8779.9945    8726.3102   -70.667259   -76.029725    13.143966   -7781.3492 
  742000    77.577257    -9856.729   -9560.9691    -9856.729            0    8302.4819    24.659918    24.663139    22.791442    13861.549     8724.208    8312.5674    7870.6704    102.28965    80.583126   -312.79544   -7882.5686 
  743000    76.288421    -9860.366   -9569.5197    -9860.366            0     8463.844    24.684278    24.747461    22.658312    13841.356    7667.2936    8250.8784    9473.3601    191.36327   -89.682704   -165.36868   -7860.9914 
  744000     76.61537   -9864.9027     -9572.81   -9864.9027            0    8575.9292    24.688763    24.723995    22.659137    13831.247    8556.8409    8211.1067    8959.8399    262.99296   -209.91991    625.37341   -7842.9203 
  745000    79.259111   -9867.4863   -9565.3144   -9867.4863            0    8309.2859     24.65314    24.695467    22.726599    13836.426    8046.8507    8750.1327    8130.8745   -19.316834   -759.27824   -569.33666    -7888.583 
  746000    76.646738    -9866.278   -9574.0656    -9866.278            0    8700.3789    24.628631    24.676664    22.759639    13832.226    8943.6322    9106.2894    8051.2149    -437.2706   -81.431402   -784.85068   -7818.9484 
  747000    79.763756    -9854.734   -9550.6382    -9854.734            0    8250.1807    24.676772    24.647771    22.779606    13855.181    8279.6445     8745.276    7725.6216   -198.47718   -164.28056    -233.2901   -7883.5769 
  748000    76.268126   -9873.6477   -9582.8789   -9873.6477            0    8066.3419    24.727133    24.630825    22.754088     13858.37    7778.6814     8735.058    7685.2863    58.366745   -903.65153    241.50408   -7952.5896 
  749000    75.983254   -9874.5161   -9584.8333   -9874.5161            0    8432.2911    24.580471    24.750578    22.750319    13840.859    9178.0524    8141.0518    7977.7691   -392.75943     166.4141   -561.25739   -7882.7354 
  750000    81.638476   -9870.2186   -9558.9755   -9870.2186            0    8036.0646    24.645222    24.768388    22.701464    13857.483    7938.9834    7497.6179    8671.5925    136.90097    -691.4712    582.60588   -7934.9095 
Loop time of 575.658 on 64 procs for 250000 steps with 1920 atoms

Performance: 75.045 ns/day, 0.320 hours/ns, 434.286 timesteps/s
194.0% CPU use with 32 MPI tasks x 2 OpenMP threads

MPI task timing breakdown:
Section |  min time  |  avg time  |  max time  |%varavg| %total
---------------------------------------------------------------
Pair    | 72.505     | 74.238     | 82.118     |  20.7 | 12.90
Bond    | 0.92152    | 1.0809     | 1.859      |  16.6 |  0.19
Kspace  | 264.02     | 275.15     | 283.15     |  26.4 | 47.80
Neigh   | 0.14141    | 0.15434    | 0.16701    |   1.9 |  0.03
Comm    | 82.637     | 91.511     | 98.691     |  42.8 | 15.90
Output  | 0.97083    | 0.97122    | 0.97358    |   0.0 |  0.17
Modify  | 98.798     | 105.16     | 109.87     |  31.0 | 18.27
Other   |            | 27.39      |            |       |  4.76

Nlocal:        60.0000 ave          63 max          57 min
Histogram: 1 1 0 9 0 11 7 0 2 1
Nghost:        3544.72 ave        3571 max        3517 min
Histogram: 3 1 4 0 7 3 3 9 1 1
Neighs:        21941.2 ave       22920 max       20834 min
Histogram: 1 1 1 6 7 5 3 3 3 2

Total # of neighbors = 702120
Ave neighs/atom = 365.68750
Ave special neighs/atom = 2.0000000
Neighbor list builds = 250
Dangerous builds = 0

unfix		3
unfix		2
unfix		1

write_data	data.final.${pid}
write_data	data.final.1
System init for write_data ...
PPPM initialization ...
  extracting TIP4P info from pair style
  using 12-bit tables for long-range coulomb (../kspace.cpp:340)
  G vector (1/distance) = 0.3752637
  grid = 30 30 30
  stencil order = 5
  estimated absolute RMS force accuracy = 0.0031788353
  estimated relative force accuracy = 9.572968e-06
  using double precision FFTW3
  3d grid and FFT values/proc = 5400 960
Last active /omp style is kspace_style pppm/tip4p/omp
WARNING: Not all mixed pair coeffs generated from mixing. Use write_data with 'pair ij' option to store all pair coeffs. (../write_data.cpp:312)

write_restart   restart.lmp.${pid}
write_restart   restart.lmp.1
System init for write_restart ...
PPPM initialization ...
  extracting TIP4P info from pair style
  using 12-bit tables for long-range coulomb (../kspace.cpp:340)
  G vector (1/distance) = 0.3752637
  grid = 30 30 30
  stencil order = 5
  estimated absolute RMS force accuracy = 0.0031788353
  estimated relative force accuracy = 9.572968e-06
  using double precision FFTW3
  3d grid and FFT values/proc = 5400 960
Last active /omp style is kspace_style pppm/tip4p/omp
Total wall time: 0:09:35
