#include		in.partitions
include		in.temp
variable        temperature equal 45.49
variable	tempDamp equal 100.0
include		in.pressure
variable        pressure equal 8768.4
variable        pressureDamp equal 1000.0 # This is 1 ps
include		in.seed
variable        seed equal 745823

units		real
atom_style	full
read_restart	restart.lmp.${pid}
read_restart	restart.lmp.1
Reading restart file ...
  restart file = 30 Jul 2021, LAMMPS = 30 Jul 2021
  restoring atom style full from restart
  orthogonal box = (0.030794676 0.063917094 0.064235700) to (24.699206 24.666084 22.745764)
  4 by 4 by 2 MPI processor grid
  restoring pair style lj/cut/tip4p/long/omp from restart
  restoring bond style harmonic/omp from restart
  restoring angle style harmonic/omp from restart
  1920 atoms
  1280 bonds
  640 angles
Finding 1-2 1-3 1-4 neighbors ...
  special bond factors lj:    0        0        0       
  special bond factors coul:  0        0        0       
     2 = max # of 1-2 neighbors
     1 = max # of 1-3 neighbors
     1 = max # of 1-4 neighbors
     2 = max # of special neighbors
  special bonds CPU = 0.002 seconds
  read_restart CPU = 0.008 seconds
include 	in.setup
variable	out_freq equal 1000
variable	out_freq2 equal 10000
variable	out_freq3 equal 1000

timestep	2.0

neigh_modify    delay 7 every 1

include		in.tip4p
# This is TIP4P/Ice

# create groups ###
group ox type 2
640 atoms in group ox
group hy type 1
1280 atoms in group hy

# set charges - beside manually ###
set group ox charge -1.1794
Setting atom values ...
  640 settings made for charge
set group hy charge 0.5897
Setting atom values ...
  1280 settings made for charge

# ### TIP3P Potential Parameters ###
pair_style lj/cut/tip4p/long/omp 2 1 1 1 0.1577 8.5
pair_coeff 1 1*2 0.000 0.000
pair_coeff 2 2 0.21084 3.1668
bond_style  harmonic
bond_coeff  1 450 0.9572
angle_style harmonic
angle_coeff 1 55 104.52
kspace_style pppm/tip4p/omp 1.0e-5
pair_modify tail yes

thermo          ${out_freq}
thermo          1000
thermo_style    custom step temp pe etotal epair emol press lx ly lz vol pxx pyy pzz pxy pxz pyz enthalpy

restart 	${out_freq3} restart.lmp.${pid} restart2.lmp.${pid}
restart 	1000 restart.lmp.${pid} restart2.lmp.${pid}
restart 	1000 restart.lmp.1 restart2.lmp.${pid}
restart 	1000 restart.lmp.1 restart2.lmp.1


include         in.dump
dump            myDump all atom ${out_freq2} dump.water.${pid}
dump            myDump all atom 10000 dump.water.${pid}
dump            myDump all atom 10000 dump.water.1
dump            myDump2 all dcd ${out_freq2} dump.dcd
dump            myDump2 all dcd 10000 dump.dcd
dump_modify     myDump append yes
dump_modify     myDump2 append yes


variable natoms 	equal  "count(all)"                        # NUMBER ATOMS
variable H      	equal  "enthalpy/v_natoms"                 # ENTHALPY-per-atom
variable Vol      	equal  "vol/v_natoms"                 # volume-per-atom
fix AVG all 		ave/time ${out_freq} 1 ${out_freq} v_Vol v_H file vol_enthalpy.dat
fix AVG all 		ave/time 1000 1 ${out_freq} v_Vol v_H file vol_enthalpy.dat
fix AVG all 		ave/time 1000 1 1000 v_Vol v_H file vol_enthalpy.dat




fix 		1 all shake 1e-6 200 0 b 1 a 1
       0 = # of size 2 clusters
       0 = # of size 3 clusters
       0 = # of size 4 clusters
     640 = # of frozen angles
  find clusters CPU = 0.001 seconds
fix             2 all nph aniso ${pressure} ${pressure} ${pressureDamp}
fix             2 all nph aniso 8768.4 ${pressure} ${pressureDamp}
fix             2 all nph aniso 8768.4 8768.4 ${pressureDamp}
fix             2 all nph aniso 8768.4 8768.4 1000
fix             3 all temp/csvr ${temperature} ${temperature} ${tempDamp} ${seed}
fix             3 all temp/csvr 45.49 ${temperature} ${tempDamp} ${seed}
fix             3 all temp/csvr 45.49 45.49 ${tempDamp} ${seed}
fix             3 all temp/csvr 45.49 45.49 100 ${seed}
fix             3 all temp/csvr 45.49 45.49 100 745823


run             250000
PPPM initialization ...
  extracting TIP4P info from pair style
  using 12-bit tables for long-range coulomb (../kspace.cpp:340)
  G vector (1/distance) = 0.37546423
  grid = 30 30 30
  stencil order = 5
  estimated absolute RMS force accuracy = 0.0031548213
  estimated relative force accuracy = 9.5006506e-06
  using double precision FFTW3
  3d grid and FFT values/proc = 5400 960
Last active /omp style is kspace_style pppm/tip4p/omp
Neighbor list info ...
  update every 1 steps, delay 7 steps, check yes
  max neighbors/atom: 2000, page size: 100000
  master list distance cutoff = 10.8154
  ghost atom cutoff = 10.8154
  binsize = 5.4077, bins = 5 5 5
  1 neighbor lists, perpetual/occasional/extra = 1 0 0
  (1) pair lj/cut/tip4p/long/omp, perpetual
      attributes: half, newton on, omp
      pair build: half/bin/newton/omp
      stencil: half/bin/3d
      bin: standard
Per MPI rank memory allocation (min/avg/max) = 10.56 | 10.57 | 10.57 Mbytes
Step Temp PotEng TotEng E_pair E_mol Press Lx Ly Lz Volume Pxx Pyy Pzz Pxy Pxz Pyz Enthalpy 
 7000000    48.290614    -9972.802   -9788.6961    -9972.802            0    8738.0354    24.668412    24.602167    22.681529    13765.338    8140.3153    9162.6872    8911.1036      -414.23   -141.87335    159.60414   -8034.5065 
 7001000    45.291746   -9982.2234   -9809.5506   -9982.2234            0    9177.8713    24.597115    24.630202    22.682956    13742.059    9454.1438    8786.6825    9292.7876   -237.28111   -398.31346   -312.50283   -7970.1783 
 7002000    46.406021   -9990.4803   -9813.5594   -9990.4803            0    8513.0387    24.644495    24.623999    22.680826    13763.769    8115.1811    8729.6396    8694.2954   -183.60855   -354.25092    239.78557   -8104.7334 
 7003000    46.712199   -9988.1743   -9810.0861   -9988.1743            0    8916.0804    24.611872    24.687181    22.625472    13747.186    8860.6474    8239.1814    9648.4123   -300.51216   -494.14342   -142.62829   -8022.5136 
 7004000    43.889549   -9984.2362   -9816.9093   -9984.2362            0    9031.7423    24.612894    24.688888    22.605863    13736.791    9034.3263    8680.3436    9380.5571   -78.542625   -869.76626    600.69514    -8007.517 
 7005000    45.835627   -9982.5314   -9807.7851   -9982.5314            0    8742.4295     24.60924    24.669907    22.650541    13751.317    8285.7593    8959.7419    8981.7873   -519.74244   -250.51398    205.13492   -8054.5009 
 7006000    45.802059    -9978.684   -9804.0657    -9978.684            0    8587.1924    24.615565    24.644212    22.690995    13765.066    8462.7117    8580.9833    8717.8823   -218.77912   -380.61167    138.26483   -8080.1922 
 7007000    44.433475   -9982.8043   -9813.4037   -9982.8043            0    8977.0668    24.613034    24.646967    22.651661    13741.327    9310.8236    8707.2955    8913.0814    404.35772    160.84992    318.80375   -8014.3711 
 7008000    45.187553   -9984.7916   -9812.5161   -9984.7916            0    8892.8204    24.605895    24.671506     22.64208    13745.203    8888.5241    8616.1076    9173.8297   -199.17443   -625.72458    269.75596   -8029.8641 
 7009000    46.739029   -9982.1668   -9803.9763   -9982.1668            0    8531.9788    24.648845    24.643271    22.653975    13760.663    8389.3084    8622.8674    8583.7605   -73.793973   -427.75127   -208.07119   -8091.7349 
 7010000    46.160974   -9983.1916   -9807.2049   -9983.1916            0    9050.1722    24.627495    24.645466    22.635987     13739.05    8938.2621    8944.9178    9267.3367    -137.8037   -595.74849    191.24428   -7993.8223 
 7011000    43.331059   -9978.5004   -9813.3026   -9978.5004            0    8588.4883      24.6115    24.617989    22.722423     13767.19    8464.3174    9138.8877    8162.2598    11.128406    128.82193     674.1492    -8088.903 
 7012000    46.074755   -9976.3503   -9800.6924   -9976.3503            0    9117.9388    24.568775    24.592221    22.736448    13737.378    9203.6168    9787.6936     8362.506   -90.738175    -316.5963   -255.99547   -7973.9537 
 7013000    46.811801    -9986.495   -9808.0271    -9986.495            0    8375.6906    24.595261    24.683306    22.681286    13769.635    8516.8784    8055.8649    8554.3284   -464.32011   -348.48098    -27.33399   -8126.0543 
 7014000    43.933499    -9983.748   -9816.2535    -9983.748            0    9411.7298    24.603022    24.688855    22.594067    13724.098    9064.9222    9117.8168    10052.451   -49.154464    29.977711    581.73689   -7932.4779 
 7015000    46.572909   -9988.2745   -9810.7173   -9988.2745            0    8750.3202    24.634512    24.634883    22.655757    13749.061    9059.1203     8618.204    8573.6363   -150.16141   -386.15481   -571.66781   -8056.1385 
 7016000    46.474905   -9986.4227   -9809.2391   -9986.4227            0    8816.4438    24.618549    24.662548    22.649294    13751.658    8978.1203    8263.7777    9207.4333   -142.70929   -85.899116    328.09894   -8041.0676 
 7017000    45.313109   -9983.8397   -9811.0855   -9983.8397            0    8566.1516    24.668146    24.670023    22.614556    13762.399    8134.1037    8786.4248    8777.9263    39.382965    60.161014    286.10543   -8091.7692 
 7018000    44.384989   -9983.9769   -9814.7611   -9983.9769            0    8911.5378    24.645354    24.633017    22.638354    13743.506    8561.1433    9081.3059    9092.1641   -194.84287    -495.0837    244.45496   -8028.5776 
 7019000    45.491793   -9986.0044    -9812.569   -9986.0044            0    8926.0345    24.626271    24.626949    22.665286    13745.814    8967.0054    8773.5725    9037.5255     65.98399   -317.05837   -171.29979   -8023.1793 
 7020000    45.720283   -9990.3711   -9816.0645   -9990.3711            0    8633.2906    24.603094    24.642353    22.698878    13761.834    8726.6136    9035.6698    8137.5882   -175.86789   -449.04702    74.662076   -8083.3439 
 7021000    45.159365   -9984.1592   -9811.9911   -9984.1592            0    9069.1995    24.536007    24.681289    22.683166    13736.478    9752.4173    8345.5471    9109.6343   -39.813617   -301.66493    335.06084   -7995.1362 
 7022000    46.728647    -9983.241   -9805.0901    -9983.241            0    8833.4441    24.597132    24.654505    22.677639    13752.403    8851.5385     9016.342    8632.4518    4.2035702   -675.91519    373.76914   -8033.4132 
 7023000    44.859965   -9989.0701   -9818.0435   -9989.0701            0    8949.9959    24.593536    24.605198    22.707644     13741.05    9046.0564    9280.3575    8523.5737    74.171506   -181.42828   -917.46558   -8024.4721 
 7024000    47.050939   -9977.0977    -9797.718   -9977.0977            0    9038.7968    24.644855    24.619989    22.652808    13744.729     8456.224    9586.6383    9073.5282   -213.60522   -715.42407    176.22102   -7985.8662 
 7025000    46.311505   -9985.7275   -9809.1669   -9985.7275            0    9060.1057    24.600061    24.669726    22.630073    13733.666    8748.1703    9406.4819     9025.665    353.68866   -414.78288    446.14508   -7994.5054 
 7026000    46.330425   -9980.7355   -9804.1028   -9980.7355            0    8813.8207    24.682988    24.711581    22.552996    13756.327     7955.611    8456.9448    10028.906   -156.65849   -183.46473    209.45625   -8035.8572 
 7027000     45.07307   -9980.9313   -9809.0922   -9980.9313            0    8871.1274    24.637334    24.637353    22.651583    13749.481    8475.6518    8916.6662    9221.0643   -119.17651    238.89319   -38.752387   -8030.2353 
 7028000    45.152718   -9985.6622   -9813.5194   -9985.6622            0    9072.0176    24.587898    24.650236    22.665771    13737.667    9504.8416    8787.4446    8923.7664    118.55929   -137.46381   -267.46789   -7995.9427 
 7029000    45.037367   -9988.9517   -9817.2487   -9988.9517            0    8148.4717    24.591445    24.659029    22.715016    13774.412    8962.6533    7517.6244    7965.1374   -163.37168    -76.17384     152.3252   -8180.3375 
 7030000     46.70351   -9984.6152   -9806.5602   -9984.6152            0    8755.7994    24.614831    24.632407    22.679508    13751.097    8948.3301    8954.8217    8364.2465   -283.59377   -244.97167    -379.6696   -8050.6228 
 7031000    49.275565   -9992.0776   -9804.2167   -9992.0776            0    8435.6479    24.619549    24.668609    22.661265    13762.866    8548.1574    8288.6517    8470.1347    -938.4811   -374.68024    91.342295   -8111.0363 
 7032000    47.180481   -9983.6465    -9803.773   -9983.6465            0    8930.6696    24.653761    24.686016    22.592915    13750.119    8523.1841    8653.4222    9615.4026    -337.3845    70.596197    51.728261   -8012.8935 
 7033000    46.160847   -9985.6096   -9809.6234   -9985.6096            0    8447.4936    24.651967    24.602646    22.707355    13772.093    7998.3508    8479.9451     8864.185   -388.01367   -303.87985    625.30917   -8112.9286 
 7034000    45.602531   -9990.1309   -9816.2733   -9990.1309            0    9034.7177    24.588624    24.636032     22.68539    13742.041    9231.3903    9008.2551    8864.5077   -193.47847    -269.7074   -197.62623   -8005.5932 
 7035000    45.076707   -9996.4464   -9824.5935   -9996.4464            0    8095.8979    24.630213    24.686412    22.663416    13780.072    7942.5944    7665.4095    8679.6898   -263.30259    -264.4523    379.01684   -8197.5753 
 7036000    44.455191   -9978.6351   -9809.1516   -9978.6351            0    9244.5048    24.574827    24.629083    22.696724    13737.316    9534.4555    9126.4776    9072.5812   -322.87708   -647.52185    273.86949   -7957.0644 
 7037000    45.695355   -9982.4388   -9808.2273   -9982.4388            0    9087.2632    24.632627    24.610699    22.664544     13739.84    8392.9404    9369.8246    9499.0246   -66.810967   -245.82431    73.225326   -7987.3082 
 7038000     46.25555   -9982.8929   -9806.5457   -9982.8929            0    8698.3322    24.613793    24.631893    22.684948    13753.528    8661.0525    9007.4119    8426.5324   -50.090124   -295.68885   -51.982433   -8061.8246 
 7039000    44.694712   -9986.1795   -9815.7828   -9986.1795            0    8676.4601    24.662081    24.607443    22.663293     13753.69    8125.3565    8895.0277    9008.9961    11.328469   -179.62049    349.55216   -8075.4285 
 7040000    46.043279   -9989.0137   -9813.4758   -9989.0137            0     8742.321    24.570688    24.624216    22.731887    13753.563    9201.0619    8762.0548    8263.8463    -267.5207    60.279301   -242.15958    -8059.927 
 7041000    44.485579   -9988.3261   -9818.7268   -9988.3261            0    8969.4126    24.609302    24.627027    22.680138    13745.387    8864.7491    9026.9052    9016.5836    9.3632978    40.822697    523.22426   -8020.6971 
 7042000     45.57359   -9984.2983   -9810.5509   -9984.2983            0    9109.6622    24.561885    24.652061    22.692576     13740.38    9326.1555    9140.0906    8862.7404   -322.29377   -240.06958    -498.9669   -7985.0717 
 7043000    44.893426    -9977.023   -9805.8688    -9977.023            0    9099.7886     24.58085    24.587671    22.741277    13744.506    8665.0697    9636.6576    8997.6384   -287.27779   -52.851341   -141.57658   -7981.8206 
 7044000    44.796261   -9981.2741   -9810.4903   -9981.2741            0    8851.2097    24.599518    24.624237    22.701187    13751.116    9232.7987    8542.8598    8777.9706   -306.80185    324.86371   -280.64333   -8035.4163 
 7045000    44.809289   -9992.3285   -9821.4951   -9992.3285            0    8798.3214     24.58888    24.581612    22.758428    13755.975    8802.9167    9299.6079    8292.4397   -437.92596   -79.450161    286.77513   -8056.4042 
 7046000    47.629127   -9986.5505   -9804.9665   -9986.5505            0    8664.8257    24.630099    24.649468    22.664427        13760    8868.5232    8486.2601    8639.6938    154.27576   -240.15167   -14.033901   -8066.1483 
 7047000    45.423401   -9986.7768   -9813.6021   -9986.7768            0    8628.5031    24.541451    24.627009    22.782269    13769.205    9071.4775     8513.595     8300.437   -5.1894876    209.36495     831.0884   -8080.9146 
 7048000    45.137952   -9984.8219   -9812.7354   -9984.8219            0    8893.5145    24.633004    24.592864    22.692992    13747.326     9084.047    9043.3106    8553.1858   -51.421278   -320.16659    341.78404   -8029.6689 
 7049000    45.998998   -9981.6365   -9806.2674   -9981.6365            0    8690.3326    24.502564    24.720928    22.707038    13754.246    9935.1574    7857.1789    8278.6615   -11.419994    -104.7776    608.07702   -8063.0599 
 7050000    48.270157   -9987.1225   -9803.0946   -9987.1225            0    9209.1893     24.66522    24.606531    22.640769     13741.26    8795.7835    9452.8272    9378.9573    70.452942   -450.52462   -75.273165    -7957.553 
 7051000    46.770516   -9989.3767   -9811.0661   -9989.3767            0    8639.3725    24.598292    24.664557    22.674764    13756.915    8239.0353    8552.7572    9126.3249    17.980435    -372.0077   -68.225931   -8077.7446 
 7052000     45.52735   -9983.8111     -9810.24   -9983.8111            0    8778.6404    24.615687    24.640003    22.676718    13754.123    9122.1957    8549.4969    8664.2286   -280.45726   -905.64552   -381.37685   -8049.3345 
 7053000    44.815452   -9984.6982   -9813.8413   -9984.6982            0    8801.3048    24.608573    24.650042    22.672839    13753.397    8937.4523    8815.9228    8650.5393   0.19496622   -411.63395   -143.91837   -8048.4827 
 7054000    45.782175   -9984.3429   -9809.8004   -9984.3429            0     8469.289    24.659578    24.646579     22.64888    13765.406    7995.0063    8523.7584    8889.1024   -163.56496    5.8246752    304.06508    -8109.554 
 7055000    47.060009   -9985.5493    -9806.135   -9985.5493            0    8782.9651    24.622722    24.644773    22.668371    13755.653    9006.0281     8822.937    8519.9301    525.79474   -923.29707   -302.45751   -8044.1661 
 7056000    45.647736   -9977.8207   -9803.7907   -9977.8207            0    8959.6261    24.618997    24.614591    22.688777    13749.094    8827.6064    9447.9296    8603.3423    35.144143    199.83796    462.96544   -8007.2385 
 7057000    45.995252   -9986.1672   -9810.8123   -9986.1672            0    8825.5463    24.653643    24.646345    22.629829    13750.386    8467.9412     8990.889    9017.8086   -961.57164   -401.99335   -25.353059   -8040.9789 
 7058000    43.297222   -9977.4723   -9812.4036   -9977.4723            0    9071.7061    24.605989     24.65606    22.650294    13741.633    9255.0657    9185.4179    8774.6348   -174.93995   -118.16027    14.618544   -7994.3645 
 7059000    45.443817   -9986.3468   -9813.0942   -9986.3468            0      8555.19    24.596411    24.651308    22.692633    13759.308    9077.0341    8501.0877    8087.4481    64.481961   -163.43577    531.21147   -8096.3636 
 7060000    44.551865   -9987.3948   -9817.5428   -9987.3948            0    8999.6454    24.577951    24.620383    22.713027    13744.074    9191.3655    8899.0556     8908.515    -17.21798   -612.17658   -325.19211   -8013.6249 
 7061000    45.611871   -9989.4957   -9815.6024   -9989.4957            0    8921.2218    24.554411    24.640706    22.718807    13745.742    9341.4347     8894.787    8527.4436   -323.59508   -402.98058   -250.37937    -8027.187 
 7062000    45.668868    -9985.351   -9811.2405    -9985.351            0    8882.3927    24.612076     24.60131    22.710359     13750.88    8522.6899    9201.9521    8922.5361   -789.46163   -99.072016   -259.97136   -8029.9435 
 7063000    45.850358   -9976.1197   -9801.3172   -9976.1197            0    8967.5333    24.629554     24.68593    22.606539    13744.854    8612.0669    8770.2869    9520.2461   -393.84306   -203.90915    110.59938    -8003.734 
 7064000     45.45373   -9985.8042   -9812.5138   -9985.8042            0    8411.3819    24.629395     24.65453    22.673402    13767.883    8851.4131    8074.6108    8308.1217    178.32059    278.01363   -401.37026   -8123.5887 
 7065000    43.182104   -9984.7846   -9820.1547   -9984.7846            0    8727.9909    24.618927    24.665503    22.650104    13754.009    8717.8795    8065.3761    9400.7172    -129.1147   -284.66722   -210.62997   -8069.4234 
 7066000    47.502532   -9982.4509   -9801.3496   -9982.4509            0      8632.75    24.568326    24.648615    22.737569    13769.308    8798.3212    8457.3643    8642.5644   -317.96147   -313.06993    47.907111   -8067.7965 
 7067000    43.839907    -9984.679   -9817.5413    -9984.679            0    8606.1718    24.578152    24.654404     22.71273    13762.999    9040.7276    7974.4939     8803.294   -308.27917   -312.82755    428.26604   -8090.1172 
 7068000    44.345016    -9988.123   -9819.0596    -9988.123            0    8727.9063    24.564944     24.64981    22.720607    13757.809    9584.0714    8341.1086     8258.539   -633.97532   -407.36019    496.42825   -8067.8616 
 7069000    46.036593   -9992.5553   -9817.0428   -9992.5553            0    8616.5084    24.617072    24.621623    22.688105    13751.539    8645.6258    8547.1674    8656.7319   -185.49112    88.780584    70.169274   -8088.9841 
 7070000    44.004263   -9983.3307   -9815.5664   -9983.3307            0    8733.8184    24.583599    24.611184    22.728625    13751.533    8454.4734    9207.2815    8539.7003   -145.67148   -459.13329   -125.41782   -8063.9816 
 7071000    46.263779   -9985.9443   -9809.5657   -9985.9443            0     9127.309    24.564452    24.625423    22.700443    13731.726    9028.9456    9494.4062    8858.5751    220.19529    227.47019   -4.7007241   -7981.7022 
 7072000    45.793808   -9985.8498   -9811.2629   -9985.8498            0    7869.0487    24.618749    24.666949    22.713924    13793.471    8017.6414    7784.8392    7804.6655   -27.163133   -529.59677    296.64776   -8228.2965 
 7073000    43.099653   -9985.5175    -9821.202   -9985.5175            0    9166.4199    24.571218    24.649004    22.680286    13736.452    9483.0445    8724.6925    9291.5227   -104.75622   -384.84119    302.47056   -7984.8741 
 7074000    45.689408   -9980.9212   -9806.7324   -9980.9212            0    8933.3753    24.592571    24.571727     22.76076    13753.916    9115.9588    9527.4935    8156.6736    -249.8249    5.3682965    428.54698   -8014.8156 
 7075000    46.731714   -9982.0978   -9803.9352   -9982.0978            0    8861.3321    24.606457     24.58419    22.739705    13755.926    8909.7213    9307.6879    8366.5872    97.785935    46.201032    331.43701   -8026.2096 
 7076000    46.612007   -9988.3403   -9810.6341   -9988.3403            0     8921.576    24.578211    24.623383    22.717101     13748.36    9263.3315    9010.3222    8491.0744    171.09916    -135.2192    803.96588   -8021.8069 
 7077000    44.358572   -9985.5988   -9816.4837   -9985.5988            0    8839.7483    24.663645     24.60128    22.659168    13748.614    8445.2933    9450.6451    8623.3067    -515.7839   -110.23559   -661.69141   -8044.0307 
 7078000    45.792919   -9983.1479   -9808.5644   -9983.1479            0    8369.7699    24.568069    24.693099    22.706232    13775.003    8893.7021    8070.3583    8145.2494   -223.98043   -475.10508    146.36825   -8127.1254 
 7079000    46.406334    -9991.016   -9814.0939    -9991.016            0    8251.0728    24.618079    24.616318     22.71332    13764.419    8318.7627    8523.9227    7910.5329   -20.268445   -381.03741   -361.34444   -8157.7741 
 7080000    45.578458   -9984.6514   -9810.8856   -9984.6514            0    9018.1344    24.560506    24.639895    22.709638    13743.153    8936.6966    9214.1031    8903.6036     38.66815   -638.68658     51.08131   -8003.3828 
 7081000    46.301354   -9987.0056   -9810.4837   -9987.0056            0    8370.7837    24.647311    24.619957    22.692174    13769.968    8291.7005    8773.5052    8047.1455    342.17314     148.9973   -88.878238   -8129.4557 
 7082000    45.953322    -9985.729   -9810.5339    -9985.729            0    8999.7993    24.620217    24.623866    22.667093     13741.81    8569.4213    9235.9419    9194.0347   -101.22378   -429.20404   -129.05103   -8006.8824 
 7083000    44.542766   -9987.8792   -9818.0618   -9987.8792            0    9209.9787    24.564726    24.580366    22.746456    13734.536    9686.9165    9257.4778    8685.5416   -173.48743    341.26588    53.284613   -7973.2651 
 7084000    45.589031   -9981.0404   -9807.2342   -9981.0404            0    8485.4448    24.605389    24.627745    22.729251    13773.363    8596.8833    8363.6616    8495.7897   -222.49439   -71.346617    264.89038   -8102.7598 
 7085000    44.394957    -9983.603   -9814.3491    -9983.603            0    8640.8386    24.594681    24.615977    22.728227    13760.171    8996.1449    8982.5837    7943.7872   -281.11955   -56.159084    298.98373   -8080.3231 
 7086000     44.77129    -9984.063   -9813.3744    -9984.063            0    8314.7679    24.635828    24.664946    22.663937    13771.546    8303.6238    7740.6943    8899.9855   -168.54962   -425.25996    218.97207   -8143.4043 
 7087000    45.398934   -9981.7115   -9808.6301   -9981.7115            0     9210.843    24.608651    24.654809    22.636367    13733.973     9309.178    9080.1998    9243.1512   -190.50439   -337.30504      422.331    -7963.736 
 7088000    46.783594    -9981.811   -9803.4506    -9981.811            0    8960.2918    24.569632    24.632299    22.718487    13749.376    9103.0293    8929.3387    8848.5074   -11.863993   -219.68059   -63.690845    -8006.728 
 7089000    43.810335   -9988.5808   -9821.5558   -9988.5808            0    8608.9912    24.561029    24.614366    22.762862    13761.383    9002.4452    8420.6308    8403.8977    120.60737   -339.05132   -123.84908   -8093.7687 
 7090000    46.175447   -9983.3498   -9807.3079   -9983.3498            0    8967.1566    24.570615    24.599087    22.744423    13747.064    9322.2715    9119.3467    8459.8517   -244.81163    109.59974    -633.1196   -8009.5112 
 7091000     43.89925   -9985.8241   -9818.4602   -9985.8241            0     8812.654    24.631743    24.670589    22.626376    13749.588    8391.9018    8590.2181     9455.842   -47.725397    105.23284    194.77498   -8051.3148 
 7092000    44.248912   -9975.8167   -9807.1197   -9975.8167            0    9139.7215     24.65249     24.63346    22.619437    13736.244    8451.7923    9555.3438    9412.0284   -199.80488   -96.538022   -43.784825   -7976.1681 
 7093000    45.458355   -9984.2283   -9810.9203   -9984.2283            0    8609.9243    24.656298    24.684456    22.616996    13765.321    8127.8014    8513.8502    9188.1214   -203.46356     -30.4509    174.52832   -8082.4515 
 7094000     47.24589   -9988.2736   -9808.1507   -9988.2736            0    8934.2235    24.577616    24.684101     22.64884    13740.516    9204.6321    8583.7599    9014.2784   -289.25874   -333.99824    432.30352   -8017.8098 
 7095000    43.890535   -9990.7082   -9823.3775   -9990.7082            0    8664.9934    24.639353    24.630766    22.673832    13760.434    8647.9401     8775.548     8571.492    180.09369   -343.67419     592.9272   -8084.4709 
 7096000    45.797274   -9983.5642   -9808.9641   -9983.5642            0    8959.3987    24.593899    24.673188     22.64578    13741.683    9558.2303    8556.8574    8763.1083     -339.328   -802.86588   -95.023865   -8013.4258 
 7097000    45.949037   -9986.5188   -9811.3401   -9986.5188            0    8153.4284    24.684206    24.669462    22.610194    13768.389    7995.0444    8319.3335    8145.9073   -14.866679    -276.1529    43.483841   -8174.1494 
 7098000     44.17548   -9991.9895   -9823.5724   -9991.9895            0     8583.733    24.653147    24.649727    22.644284    13760.781    8252.3769    8644.3883    8854.4338    13.250508    86.134756    132.91152   -8100.9299 
 7099000    45.761918   -9982.8575   -9808.3922   -9982.8575            0    8474.2473    24.610418    24.657851    22.680809    13763.622    8644.5595    8635.7577    8142.4245   -178.58634   -127.75822    110.95008   -8107.3709 
 7100000    45.571405   -9989.6923   -9815.9533   -9989.6923            0    8844.2441    24.617788    24.631196    22.665398    13743.517    8410.7976    9034.5313    9087.4036   -702.99417   -260.56311   -38.786801   -8043.2564 
 7101000    45.711733   -9989.0855   -9814.8115   -9989.0855            0    9061.7466    24.568822    24.638887    22.703096    13743.284    9187.2218    9264.9958    8733.0221   -281.77597    63.321618    353.19914   -7998.5503 
 7102000    46.028048   -9984.7908   -9809.3109   -9984.7908            0    8078.9509    24.552039    24.689538    22.729422    13778.087    9201.9943    7398.7309    7636.1275   -413.77038   -428.40233    407.80806   -8185.9325 
 7103000    45.026505   -9980.4902   -9808.8286   -9980.4902            0    8738.8906    24.628329    24.633318    22.672945    13755.165    8620.1393    8548.3147    9048.2179   -79.497352   -1.7812996    356.40894   -8055.7638 
 7104000    45.496672   -9986.3071    -9812.853   -9986.3071            0    8818.2203    24.631654    24.584443    22.704806     13749.02    8394.9718    10034.376    8025.3134   -100.75072   -242.07002    427.81712   -8044.6645 
 7105000    47.154162    -9987.969   -9808.1959    -9987.969            0    8730.6098    24.595778    24.633064    22.689665    13746.973    8523.8197    9022.8104    8645.1993    -59.94329   -112.58515    329.81669   -8057.8352 
 7106000    43.779263   -9986.6274   -9819.7209   -9986.6274            0    8491.1142    24.597366    24.608209     22.74988    13770.437    8855.5282    8677.6716    7940.1427    198.09018   -625.56003    -40.34135     -8114.47 
 7107000    45.666726   -9987.0209   -9812.9185   -9987.0209            0    8533.2653    24.616726    24.671836    22.661915    13763.483    8084.6576    8607.6992    8907.4392    308.00409   -184.13614   -288.28203   -8100.0679 
 7108000    44.166543    -9974.766    -9806.383    -9974.766            0    9757.6424    24.630817    24.660961    22.587546    13720.118    9263.3717     9308.985     10700.57   -338.47295   -526.63481    863.51358   -7853.9388 
 7109000    44.894227   -9987.6999   -9816.5426   -9987.6999            0    8288.0331    24.602592    24.656504    22.708494    13775.289    8578.0282    7612.1141    8673.9569   -75.428632   -449.19463    165.72418   -8151.4896 
 7110000    45.821473   -9985.5673    -9810.875   -9985.5673            0    9193.5746    24.585378    24.621352    22.678383    13727.798     8806.818    9713.9644    9059.9413   -231.28567   -320.64018   -628.12062   -7970.2675 
 7111000    45.353037   -9986.7374    -9813.831   -9986.7374            0    8450.6427    24.652796    24.643629    22.659048     13766.15     8467.577    8287.1098    8597.2411   -25.753999    267.30634   -82.319267   -8117.2362 
 7112000    45.774108   -9981.9027   -9807.3909   -9981.9027            0    9077.4506    24.596239    24.651248    22.655224    13736.497    8916.6426    9130.1106    9185.5985    225.12476    201.52167    151.34341   -7988.8806 
 7113000    45.791924   -9987.1054   -9812.5257   -9987.1054            0    8132.5534    24.672158    24.704781    22.602561    13776.719    7340.5063    8286.7514    8770.4026   -543.15301    49.275359   -469.67677   -8178.5386 
 7114000    46.725663   -9976.8646    -9798.725   -9976.8646            0    9022.5588    24.570292     24.62582    22.724318    13749.657    8667.3008    9421.7946     8978.581    162.55675   -478.60245   -382.69731   -7989.4796 
 7115000    46.496779   -9981.2261   -9803.9592   -9981.2261            0      8636.66    24.645703    24.641193    22.664933    13764.403    7958.4331    8986.4601    8965.0866   -190.87206   -233.27143    -538.7583   -8070.2387 
 7116000    46.030229     -9988.36   -9812.8718     -9988.36            0    9191.7323    24.642286     24.62154    22.627233    13728.645    8633.1421    9306.4034    9635.6513    122.72419   -510.69723   -75.021633   -7972.5197 
 7117000    44.318033   -9991.4478   -9822.4872   -9991.4478            0    8546.0654    24.607732    24.632375    22.695962    13757.086    8655.1189    8962.7434    8020.3339    21.678535    48.443191    90.121453   -8107.8645 
 7118000     45.18034   -9993.3751   -9821.1271   -9993.3751            0    8575.8013    24.600415    24.624819    22.692377    13746.606     8786.564    8762.1522    8178.6877   -119.71796    73.763504    243.30747   -8101.8491 
 7119000    45.902211    -9985.047   -9810.0468    -9985.047            0     8909.199    24.542201    24.692885    22.687559    13749.064    9395.0562    8752.5614    8579.9794   -337.31539   -341.67343    190.60679   -8023.6099 
 7120000     44.21949   -9983.1469    -9814.562   -9983.1469            0    8979.0901    24.619303    24.577288    22.716279    13745.068    8363.7412    9735.8979    8837.6312     155.5583    93.021891    259.10013   -8014.6341 
 7121000     45.14377   -9985.9744   -9813.8658   -9985.9744            0     8859.707     24.60314     24.63509    22.691708    13753.457    8951.3488    8771.5003    8856.2718     23.05891    240.91317   -123.92949   -8036.7852 
 7122000    45.215446   -9981.2976   -9808.9157   -9981.2976            0    8443.7856    24.572994    24.610508    22.772973    13772.043    8801.3601    8813.0475    7716.9493   -99.990266   -506.43676    71.318537   -8112.9718 
 7123000    46.182269   -9991.6357   -9815.5678   -9991.6357            0    8758.6707     24.58901    24.645265     22.68717    13748.485    8864.6126    8609.4449    8801.9545   -141.43745   -547.45367     489.2541   -8059.3882 
 7124000    46.837553   -9983.5783   -9805.0122   -9983.5783            0    9041.0711    24.601779    24.650497    22.666793    13746.188    9337.6059    8829.4476    8956.1598   -242.23423    91.321818    365.06584   -7992.5121 
 7125000    45.901138   -9978.2254   -9803.2294   -9978.2254            0    8693.5923    24.621794    24.663989    22.662508    13762.299    8555.3034    9028.2786     8497.195    409.76916    66.460313    633.95637    -8058.347 
 7126000    44.702516   -9981.0489   -9810.6226   -9981.0489            0    9268.3976    24.563271    24.667398    22.665822    13733.493    9815.4684    8958.4113     9031.313   -520.90343     331.3198   -313.91897   -7954.2654 
 7127000    47.354226   -9989.4193   -9808.8834   -9989.4193            0    8787.6188    24.623458    24.643502    22.665224    13753.445    8456.3807    8682.1132    9224.3626   -445.09589   -300.17829    428.14024   -8046.2638 
 7128000    45.971398   -9988.3919   -9813.1279   -9988.3919            0    8837.9815     24.61587     24.67644    22.629537    13745.906    9219.4215    8651.5195    8643.0035   -112.27712   -165.07185    587.25303   -8041.3784 
 7129000    45.980554   -9983.8645   -9808.5657   -9983.8645            0     8830.324    24.589936    24.642312    22.699311    13754.713    8699.8886    8974.7912    8816.2923   -551.40913   -766.68491    352.71061   -8037.2169 
 7130000    45.166195   -9990.4191    -9818.225   -9990.4191            0     8744.387     24.54927    24.671866    22.706899     13753.03    9061.3286    8871.2463    8300.5861    214.88883   -42.398768   -341.52754   -8064.3297 
 7131000    46.174734   -9993.2927   -9817.2536   -9993.2927            0    8809.3275    24.617318    24.612394    22.704404    13756.397    8893.1928    8832.8107    8701.9791    254.89164   -225.60714    129.12998   -8049.9004 
 7132000    44.949224   -9981.3044   -9809.9374   -9981.3044            0     9201.821    24.613991    24.583393    22.695842     13733.15    8958.6914    9972.3086    8674.4629   -514.85612    139.00763    477.30136   -7966.9608 
 7133000    44.589433   -9985.0774   -9815.0821   -9985.0774            0    8602.0295    24.631976    24.672936    22.638907    13758.641    8179.9697    8714.4452    8911.6734    67.502228     49.80828   -375.48201   -8089.0362 
 7134000    46.550108   -9994.7557   -9817.2855   -9994.7557            0    9025.2709    24.573758    24.618899    22.715733    13742.538    9412.4727    8626.5897    9036.7504    157.75007   -94.685511    272.78277   -8008.4333 
 7135000     44.01234    -9989.816   -9822.0209    -9989.816            0    8767.4526    24.608049    24.612396    22.708984    13753.993    8918.8899     8753.546    8629.9218   -108.75449   -157.06373  0.064209466   -8063.3762 
 7136000    44.870425   -9982.6342   -9811.5677   -9982.6342            0    8589.3517    24.635402    24.625142    22.685393      13762.1    8119.7054    9167.7684    8480.5812   -418.92655     232.2194    691.29074   -8087.6323 
 7137000    43.972115   -9986.7499   -9819.1082   -9986.7499            0    8040.4971    24.628124     24.71433    22.643423    13782.317    8049.0536     7422.927    8649.5109   -671.78927   -236.31276     238.2475   -8202.9605 
 7138000    45.758992   -9981.0689   -9806.6148   -9981.0689            0    9364.1515    24.572813    24.646746    22.667996    13728.643    9685.1364    8939.1804    9468.1376    -45.58997   -213.96354   -116.03692   -7931.7415 
 7139000    44.075154   -9984.0769   -9816.0423   -9984.0769            0    9249.0813    24.619439    24.614033     22.65946    13731.263    8653.3346    9586.1269    9507.7823    -69.93157    12.320854    746.29241   -7963.8547 
 7140000    45.799422   -9986.2362   -9811.6279   -9986.2362            0    8546.0202     24.61475    24.674255    22.655878    13760.062    8831.6987    7976.0987    8830.2632    102.56013    173.85704    436.60316   -8096.6435 
 7141000    45.676643    -9992.046   -9817.9058    -9992.046            0    8989.1971    24.613436    24.626573    22.664253    13737.814     8771.713    8997.1851    9198.6931    76.658774   -606.09208    208.75117   -8016.9029 
 7142000    44.901296   -9989.4035   -9818.2193   -9989.4035            0    8847.4852    24.666796    24.559859     22.70152    13752.877     8272.907    9241.2033    9028.3452   -188.68653   -211.77894    480.21038    -8043.665 
 7143000    45.809651   -9984.9574   -9810.3101   -9984.9574            0    9095.8709    24.563398    24.662066    22.681714    13740.223    9647.4848    8940.2306    8699.8974   -380.71492   -129.07101    642.65278   -7987.6153 
 7144000    45.890897   -9994.2683   -9819.3113   -9994.2683            0    7610.3561    24.644196    24.689212    22.678133    13798.415    7578.9174    7748.3494    7503.8014   -330.89683   -29.288651     5.439824   -8287.8358 
 7145000     47.69769    -9982.225   -9800.3797    -9982.225            0    8778.7875    24.640381    24.616766    22.667222    13749.177    9064.8909    8803.0728     8468.399   -303.11206   -192.06613    308.31822   -8040.0778 
 7146000    44.909826   -9983.7286   -9812.5119   -9983.7286            0    8948.7501    24.579386    24.642195    22.680946    13737.622    9620.0214    8405.4002    8820.8288   -34.050146   -635.16898    667.50776   -8019.6376 
 7147000    44.774745   -9983.9079   -9813.2062   -9983.9079            0    8723.7252    24.611114    24.615754    22.700505    13752.446    9306.2066    8324.9639    8540.0051    24.675413   -64.259752   -204.87588   -8063.5295 
 7148000    45.241235   -9991.5017   -9819.0215   -9991.5017            0    9109.6262    24.583447    24.622699    22.693538    13736.644    9295.2613    9026.6895    9006.9277   -202.55237   -357.79537   -38.918591   -7994.0457 
 7149000     45.68744   -9988.9598   -9814.7784   -9988.9598            0     8017.321    24.632567    24.646153    22.711317    13787.996    7731.3416    8186.0729    8134.5486    48.922064    230.43502    512.61689   -8202.6252 
 7150000    45.133325    -9985.175   -9813.1062    -9985.175            0    9147.6268    24.622661    24.647944    22.624434    13730.723    8808.5787    9102.7513    9531.5503    162.85434   -126.48932   -140.64334   -7981.3075 
 7151000    45.935677   -9983.8552   -9808.7274   -9983.8552            0    8865.8858     24.62195    24.559419    22.737777    13749.552    8307.1344    9859.2012    8431.3219    290.28937   -329.66729    260.66291   -8030.9124 
 7152000    44.482322   -9986.1868   -9816.5999   -9986.1868            0    8596.9475    24.546952    24.655367    22.733882    13758.866    9456.0015    8490.9374    7843.9036   -399.42908    21.772028   -35.180593   -8091.5455 
 7153000    46.061678    -9983.604   -9807.9958    -9983.604            0    8779.2476     24.58589    24.611429    22.729062    13753.216    8860.2194    9084.5939    8392.9296   -91.701411   -171.76173    102.90649   -8047.0846 
 7154000    45.136965   -9988.8997    -9816.817   -9988.8997            0    8953.5775    24.579546    24.651452    22.677244     13740.63    9005.4939    8836.4569    9018.7817    -238.0783   -216.85848    202.17605   -8022.5829 
 7155000    45.168229    -9985.488   -9813.2861    -9985.488            0    8646.8099    24.565483    24.663712    22.701609     13754.36    9136.7889     8037.714    8765.9269   -353.59644     155.9178   -161.78017   -8078.7946 
 7156000    42.900329   -9990.8344   -9827.2788   -9990.8344            0     9059.702    24.561677    24.651098    22.692874    13739.907      9651.96    8836.2556    8690.8904    18.803654   -210.86932    -208.5989   -8011.8735 
 7157000     43.89574   -9983.6326    -9816.282   -9983.6326            0     7999.766    24.626374     24.64229    22.706786    13779.619    7886.2449    8227.8243    7885.2289   -394.22678    8.8962092    214.78868   -8208.6362 
 7158000    46.461532   -9987.5903   -9810.4578   -9987.5903            0    9041.6334     24.53965    24.620054    22.743869    13741.107    9497.7978    9546.9661    8080.1365    161.59442    -413.9566    525.24872   -7998.5149 
 7159000    46.395537   -9986.2491   -9809.3682   -9986.2491            0    8142.6746    24.652639    24.662171    22.662044    13778.242    7927.5911    8217.8367    8282.5959   -108.75424   -458.59671    70.672321   -8173.1667 
 7160000    45.709879   -9986.4425   -9812.1756   -9986.4425            0    8825.4705    24.600924    24.641272    22.676669    13746.553    8427.0278    9070.3174    8979.0664   -166.02123   -100.65757    298.61715   -8042.8508 
 7161000     44.81703   -9990.7144   -9819.8514   -9990.7144            0     8918.673    24.568852    24.705244    22.637252    13740.347    9519.8213     8249.648    8986.5497   -194.86886   -549.54328    323.01298   -8032.6486 
 7162000    44.867414   -9984.5879   -9813.5328   -9984.5879            0     9071.731    24.610054    24.682243    22.613879    13736.379    8967.2861    8926.0884    9321.8185   -190.51119   -289.06433   -111.49244    -7996.184 
 7163000     46.15212   -9985.0744   -9809.1215   -9985.0744            0    8732.4185    24.675493    24.617009    22.638675    13751.565    8120.4678    8849.1386     9227.649   -298.62704    -57.99858    517.26582   -8057.8133 
 7164000    44.339911   -9985.9759    -9816.932   -9985.9759            0    8779.3448    24.609638    24.645683    22.668085    13748.677    8566.4817    8895.2587    8876.2941    -331.0588   -156.62689    89.457812   -8056.5825 
 7165000    44.901596    -9984.217   -9813.0316    -9984.217            0    8538.4773    24.690953    24.639797    22.627678    13766.228    7921.0785    8677.1831    9017.1705   -250.41962   -893.69652    284.31713    -8098.793 
 7166000    44.471018   -9975.9713   -9806.4275   -9975.9713            0    8895.2986    24.653206    24.622747    22.658466    13754.361    8946.9537    9192.5174    8546.4246    272.66389   -261.43368    162.89196   -8022.0908 
 7167000    42.121354   -9982.5429   -9821.9571   -9982.5429            0    8941.0742    24.639324    24.665724    22.620659    13747.632    8585.5184    8950.6593    9287.0449   -241.23722    56.614536   -330.80713   -8029.3154 
 7168000    46.500917   -9978.3888   -9801.1061   -9978.3888            0    9124.3162    24.614927    24.668484    22.623535    13737.303    9195.1704    8968.4185    9209.3596   -50.020082   -420.93556    -164.8475   -7973.0998 
 7169000    45.098061   -9986.0994   -9814.1651   -9986.0994            0    8533.4036    24.607433    24.716003    22.630499     13763.81    8502.4901    8044.4126    9053.3082   -348.55284   -448.02627     731.8424    -8101.246 
 7170000    44.921517   -9985.8288   -9814.5675   -9985.8288            0    9026.8788    24.597815    24.645226    22.670889    13743.517    9247.2018    8664.6683    9168.7664   -351.81227    167.17451    829.47049   -8005.2642 
 7171000    44.781192   -9989.3819   -9818.6556   -9989.3819            0    8365.7714    24.551602     24.70244    22.706291    13771.013    9095.9465    7861.3868    8139.9809    46.030997   -205.50972    139.93001   -8138.5066 
 7172000    46.474582   -9991.2713    -9814.089   -9991.2713            0    8458.2631    24.651096    24.659513    22.634027    13758.864    7801.1099    8930.6081    8643.0713   -96.605359   -469.40195    233.64552   -8116.8631 
 7173000    45.326894   -9981.9726   -9809.1658   -9981.9726            0    9004.1377    24.592982    24.641721    22.672506    13739.843    8803.0097    9051.5963    9157.8072   -24.834871    -428.4964   -99.914791    -8004.903 
 7174000    44.585586   -9987.2954   -9817.3148   -9987.2954            0    8768.2574    24.620984    24.659805     22.64787    13750.623    8667.1679    8621.6026    9016.0017    59.369724   -94.795275    666.25419   -8058.9395 
 7175000    44.760762    -9985.115   -9814.4665    -9985.115            0    8430.0794    24.651509    24.603136    22.697068    13765.872    7713.9578    9274.0069    8302.2737     336.4567    192.38266    518.23252   -8122.0343 
 7176000    45.320812    -9987.023   -9814.2394    -9987.023            0    8995.7053    24.569505    24.681926    22.655512    13738.817    9017.5993    9020.8215     8948.695   -511.08375   -370.38456    52.440753   -8011.8009 
 7177000    45.612732   -9982.3825    -9808.486   -9982.3825            0    8988.4617    24.591646    24.650831    22.675179    13745.796     8987.285    8619.0834    9359.0167   -600.57652    384.10422    926.74532   -8006.5841 
 7178000    45.255001   -9986.4514   -9813.9187   -9986.4514            0    8665.8325    24.646207    24.615021    22.669345    13752.742    8339.7102    8925.7829    8732.0045   -29.602372   -1.0208263    100.83226   -8075.8159 
 7179000    44.859178   -9986.9636     -9815.94   -9986.9636            0    8573.0413    24.635083    24.676321    22.637989    13761.707    8544.2649    8232.4817    8942.3773   -90.710256   -402.86651   -156.45576   -8095.3273 
 7180000    45.357643   -9990.1109   -9817.1869   -9990.1109            0    8751.7094     24.63208    24.642256    22.649707    13748.146    8600.0574    8603.9288     9051.142    94.912827     60.88817   -102.39289   -8062.4463 
 7181000    45.672266   -9984.1261   -9810.0026   -9984.1261            0    9016.0606    24.615728    24.652819    22.643586    13741.194    8889.0528    9061.0592      9098.07   -120.91959   -72.842974    15.152053    -8003.173 
 7182000    46.123221   -9983.1386   -9807.2959   -9983.1386            0    8967.8002    24.605017    24.682691    22.646354    13753.539    8920.4256    8540.8346    9442.1404   -422.97732    39.070624    301.15944   -8008.5232 
 7183000     44.78707   -9984.7933   -9814.0446   -9984.7933            0    8554.0756    24.614037    24.680593    22.654759    13762.518    9037.2126    7989.6086    8635.4057   -417.25343   -403.37436   -347.97096   -8097.1372 
 7184000    45.920232   -9983.1589   -9808.0901   -9983.1589            0    8668.3986    24.696186    24.675494    22.565695    13751.322    8374.3753    8284.7167     9346.104    138.37155    126.11667    51.793953    -8069.652 
 7185000    46.971737   -9984.1989   -9805.1213   -9984.1989            0    8390.8277    24.603152    24.623323    22.730231    13770.232    8564.3962      8804.65    7803.4369    164.20152   -223.39325    428.08515   -8120.0357 
 7186000     46.07923   -9978.5415   -9802.8664   -9978.5415            0    9395.8301    24.589861    24.619741    22.678284    13729.342    9773.1983    9393.1826    9021.1094   -176.48231    137.55297   -125.33277   -7921.5546 
 7187000    45.105785   -9994.1826   -9822.2188   -9994.1826            0    8720.7799    24.579011    24.631323    22.724356    13757.633    9288.7571    8310.7309    8562.8516   -66.600027    107.06437    329.51326    -8072.473 
 7188000    48.447638   -9993.4472   -9808.7427   -9993.4472            0    8201.3037    24.629524    24.558642    22.773029    13774.669    8271.8814    8725.7516     7606.278   -230.77379   -631.80274    222.07826   -8161.1876 
 7189000    44.514271   -9991.2167    -9821.508   -9991.2167            0    8713.2618    24.581747    24.624701    22.714282    13749.368    8896.4372    9138.3082    8105.0398    47.022139   -275.28923    554.09188   -8074.3211 
 7190000    45.803939    -9978.917   -9804.2915    -9978.917            0    8555.3245    24.566583      24.6702    22.703695    13759.858    8649.8771    8498.9523    8517.1442     142.0748    -183.6446    165.16322   -8087.4653 
 7191000     45.42619   -9986.9878   -9813.8024   -9986.9878            0    8432.2819    24.630368    24.683972    22.644352    13767.207    7957.8009    8213.7504    9125.2943   -284.41322   -500.77689   -218.79219   -8120.7638 
 7192000    46.303563   -9984.6298   -9808.0995   -9984.6298            0    8779.8962    24.612991    24.630837     22.69336     13757.59    8644.2734    8799.8089    8895.6063   -310.45234   -110.64372   -52.037093   -8046.4982 
 7193000    44.778178   -9985.2649   -9814.5501   -9985.2649            0    8603.0905    24.597554    24.661942    22.678925    13757.568    8708.1763    8475.1204    8625.9749   -437.78364    -92.36295    705.48151   -8088.4259 
 7194000    44.160294   -9981.4042    -9813.045   -9981.4042            0    8569.6484    24.633931    24.664517    22.640239    13755.847    8046.0336    8589.0118    9073.8998   -36.285221   -312.43317    610.08376   -8093.8457 
 7195000    44.607573   -9979.6534    -9809.589   -9979.6534            0    9055.7581    24.601793    24.680375    22.627055    13738.729    9160.7176     8671.779    9334.7778   -461.50873    195.08465    282.88244   -7995.1296 
 7196000    45.376976   -9984.1792   -9811.1814   -9984.1792            0    8515.2846    24.654945    24.683068    22.622247    13766.988    8288.7676     8323.402    8933.6841   -218.17932    415.11314   -388.81456   -8101.5048 
 7197000    45.868806   -9986.7469   -9811.8741   -9986.7469            0    8714.7451    24.632167    24.623513    22.678609    13755.268    8581.4941    8819.6469    8743.0944   -149.97053   -276.07168   -33.550077   -8063.6399 
 7198000    45.303068   -9976.3679   -9803.6519   -9976.3679            0    9541.9292    24.581417    24.601673    22.687245    13719.975    9421.0799     10092.19     9112.518   -203.52869    71.543395    426.69808   -7894.3905 
 7199000    44.971739    -9982.768   -9811.3152    -9982.768            0    8222.5874    24.668096    24.611719    22.702892    13783.476    8152.6041    8188.9578    8326.2004    45.756928   -187.13253    189.30326   -8158.4282 
 7200000    44.979698   -9982.1177   -9810.6346   -9982.1177            0    9118.8305    24.530724    24.666545     22.70986    13741.468    9615.4762    8686.3065    9054.7086   -252.66777     279.8071   -429.52176   -7983.1734 
 7201000    47.073828   -9988.0377   -9808.5708   -9988.0377            0    8085.1119    24.583976    24.656148    22.737513    13782.256    8490.9865    8021.2558    7743.0933    74.818613   -6.7690499   -10.547704   -8183.4627 
 7202000    45.025565   -9984.8045   -9813.1466   -9984.8045            0    8896.2232    24.578239     24.60665    22.731503    13747.743    9197.1054    8824.7751     8666.789    327.56106    60.634491    561.24354   -8029.4829 
 7203000    44.096486   -9988.5741   -9820.4582   -9988.5741            0    8827.4827    24.597894    24.665862    22.658124    13747.324     9330.899    8146.1534    9005.3958   -159.21969   -601.90122    54.882482   -8050.6307 
 7204000    46.081421   -9982.7645   -9807.0811   -9982.7645            0    8823.5102    24.560652    24.600237    22.751699    13746.528    9701.6776    8557.2942    8211.5589    209.07953    110.40573    621.14819   -8038.1525 
 7205000    45.706017   -9990.7231    -9816.471   -9990.7231            0     8734.925    24.585326    24.647161    22.690492    13749.497    8283.0314     8801.389    9120.3547   -351.29734   -457.52921    179.16363   -8064.9237 
 7206000    42.686771    -9989.396   -9826.6546    -9989.396            0    9102.1127    24.599807    24.680688    22.616699    13731.506    9014.2331    9140.6243    9151.4806   -388.08637   -218.20917   -223.53401   -8003.8661 
 7207000    45.090922   -9984.3276   -9812.4204   -9984.3276            0    8616.8514     24.58325    24.642125    22.711333    13758.151    8618.4365    8895.8649    8336.2527   -239.06875    -687.9186   -181.30046   -8083.4619 
 7208000    44.396128   -9983.2858   -9814.0275   -9983.2858            0    8339.2271    24.584047     24.64218    22.740171    13776.098    8453.2081    8560.4681    8004.0051    101.15427     273.1315     84.78149   -8138.5912 
 7209000    47.360251   -9986.1145   -9805.5557   -9986.1145            0    8937.6892    24.643228    24.576071    22.699967    13747.866    9063.4607    8897.7803    8851.8265   -47.169031    171.67133    696.23353   -8013.5622 
 7210000    46.291379   -9984.3206   -9807.8368   -9984.3206            0    9168.7874    24.581837     24.62222    22.695532    13736.684    9168.4242    9526.8972    8811.0408     25.35808   -527.37126    411.73536   -7971.0037 
 7211000    45.986454   -9978.2895   -9802.9682   -9978.2895            0    9407.3003    24.637953    24.638802      22.6217    13732.495    9059.1844    9577.8513    9584.8653   -428.68155    -356.3491    54.304077   -7918.9272 
 7212000    44.740494   -9985.8844   -9815.3133   -9985.8844            0    8398.7116    24.606257    24.660188    22.685627    13765.523    8675.7696    8608.1026    7912.2627   -70.136363    232.81598   -336.89699   -8129.2213 
 7213000    44.563036   -9983.8265   -9813.9319   -9983.8265            0    9195.7831    24.585045    24.651096    22.662026    13734.282    9395.5339    9375.2749    8816.5406   -551.12425   -26.015262    605.50145   -7972.0127 
 7214000    46.448067   -9988.8889   -9811.8077   -9988.8889            0    8248.7601    24.628847    24.689433    22.658641    13778.092     8257.786    8014.5902    8473.9039    264.29293    -540.1672     572.7517   -8154.3074 
 7215000     44.34059   -9981.6646   -9812.6181   -9981.6646            0    9376.2011     24.61192    24.665528    22.621833    13732.946    9302.5745    9169.7853    9656.2435   -212.81686   -327.66533    359.10832   -7934.7438 
 7216000    44.449021    -9988.442   -9818.9821    -9988.442            0    8705.8919    24.574591     24.67557    22.686421    13756.865    8879.1001    8230.5581    9008.0176   -418.93622    -22.47685    777.78166    -8072.321 
 7217000    44.986649   -9980.5532   -9809.0436   -9980.5532            0    8512.8023    24.584845    24.652376    22.705026    13760.945    8803.5914    8186.3677    8548.4478    334.68193   -347.82792    174.84833   -8100.6155 
 7218000    43.983076    -9975.716   -9808.0325    -9975.716            0    9200.0051    24.593121    24.594529    22.711112    13736.958    9069.4845    9676.7919    8853.7389   -105.72741   -581.92334    208.98822   -7964.9086 
 7219000    45.349471   -9991.6575   -9818.7647   -9991.6575            0     8765.446    24.574309    24.661587    22.684221    13747.578     9308.616    8476.7014    8511.0205    115.46821   -163.40484    396.71568   -8061.3425 
 7220000    45.187621   -9982.4282   -9810.1523   -9982.4282            0    9359.5953    24.608257    24.600638    22.679246    13729.535    9320.0807    9356.3874    9402.3177   -348.41679   -65.363412      281.266   -7936.0695 
 7221000    45.562215   -9990.4558   -9816.7519   -9990.4558            0    8125.2392    24.612904     24.64559    22.720292    13782.118    8441.6321    8091.3519    7842.7336   -185.53855   -493.77334    237.09668   -8183.5945 
 7222000    44.936309   -9985.5878   -9814.2701   -9985.5878            0     8859.315    24.580389    24.634579     22.70095     13746.05    9652.4592    8318.9034    8606.5825   -50.562307   -73.608103    138.88445   -8038.2252 
 7223000    44.839156   -9984.2984   -9813.3511   -9984.2984            0    8852.9123    24.615157    24.641388    22.671496    13751.433    8943.0893    8574.1208    9041.5269    -230.0106   -382.72656    230.26248   -8037.8947 
 7224000    47.721119   -9979.0689   -9797.1343   -9979.0689            0    9492.2202    24.628888    24.638667    22.612603    13721.847     9318.648    9435.7293    9722.2834   -865.73674   -288.61619    421.30963     -7897.56 
 7225000    44.347109    -9985.043   -9815.9716    -9985.043            0    8547.4002    24.626625    24.675112    22.632793     13753.15    8902.7751    8097.9206     8641.505   -317.84771   -278.85413   -61.892622   -8101.5717 
 7226000    45.381491   -9986.4958   -9813.4809   -9986.4958            0    8644.8157     24.61206    24.625634    22.701245    13758.943    8437.2286    9052.9237    8444.2948   -360.67623   -121.59418    200.03922   -8078.8115 
 7227000    44.895737   -9981.7982   -9810.6352   -9981.7982            0    8305.0212    24.628866    24.651812    22.691622    13777.131    8157.9659    8551.3439    8205.7539    108.28318    759.91668   -325.24877   -8141.9461 
 7228000    44.871083   -9974.8394   -9803.7703   -9974.8394            0     9607.025    24.620609     24.62305     22.63486    13722.033    9137.5519    9945.2093    9738.3136   -89.542203    53.740712    461.87759   -7881.1954 
 7229000    44.204014   -9985.5572   -9817.0313   -9985.5572            0    8430.6878    24.670296    24.652183    22.650378    13775.431    7867.5222    8559.1507    8865.3905    47.514296    23.553224    4.2823281   -8123.3017 
 7230000    45.529632   -9981.9348   -9808.3551   -9981.9348            0    9200.8151    24.566278    24.670858    22.669171    13739.131     9581.806    8774.6342    9246.0053   -203.02866   -94.054827    393.76346   -7964.7773 
 7231000    48.294862   -9991.9448   -9807.8228   -9991.9448            0    8748.5195    24.579579    24.674195    22.677683    13753.591    9101.8992    8773.0689    8370.5903   -258.92638   -479.79531    65.562911   -8053.0271 
 7232000    45.171275    -9982.129   -9809.9155    -9982.129            0    8550.3865    24.646568    24.621986    22.690855    13769.887    8542.1529    8780.7403    8328.2663   -299.00129   -215.92357    618.01406   -8092.8296 
 7233000     46.48422    -9981.466    -9804.247    -9981.466            0    9312.7479    24.587007    24.636847    22.682714    13739.971    9050.7979     9439.166    9448.2799    7.4571548   -541.33492    268.61616   -7938.1271 
 7234000    45.307624   -9984.3436   -9811.6102   -9984.3436            0    8068.0736    24.649529    24.622611    22.704001     13779.87    7668.9914      8594.27    7940.9592   -108.34694    348.11937    141.96877   -8190.2077 
 7235000    45.169841   -9986.9864   -9814.7784   -9986.9864            0    9009.5844     24.58169    24.661114    22.658925    13736.109    9613.2864    8485.3216    8930.1451   -387.35627   -338.62648    69.313249   -8009.9148 
 7236000     44.83507   -9983.6745   -9812.7427   -9983.6745            0     8387.771    24.643216    24.625085    22.696677    13773.281    8068.2477    8843.8843     8251.181   -309.17389    -327.7143   -51.654562    -8127.898 
 7237000    45.528361   -9988.9586   -9815.3837   -9988.9586            0    8583.6264    24.572077     24.64125    22.720793    13757.138    8557.8481    8747.7174    8445.3135   -207.65289   -609.64313   -80.099679   -8093.2187 
 7238000    46.151567   -9978.4008   -9802.4499   -9978.4008            0    8909.3766    24.551522     24.63659    22.745994    13758.273    9199.1706    8812.2472    8716.7119    171.67727   -170.94069    247.14357   -8014.7808 
 7239000    45.862808   -9984.3027   -9809.4527   -9984.3027            0    8642.9844    24.561598    24.620566    22.751232    13758.135     9510.129    8321.3183     8097.506    -95.01384   -622.80949    410.39023   -8075.2527 
 7240000    45.834768   -9978.0174   -9803.2743   -9978.0174            0    8956.7927    24.607727    24.577422     22.73845    13752.089    8778.7392    9157.7568    8933.8821   -96.067786   -783.71976   -70.523015    -8006.899 
 7241000    46.032318    -9982.451   -9806.9548    -9982.451            0    8988.8251    24.530517    24.620819    22.757478    13744.639    9791.3525    8997.3008    8177.8218    36.338547   -501.49458    413.71401   -8005.1317 
 7242000    45.090662   -9980.1774   -9808.2713   -9980.1774            0    8383.3087    24.632149     24.59909    22.731399    13773.602    8527.1677    8638.9385    7983.8199    50.881335   -161.89227    332.83892   -8124.2837 
 7243000     45.83449    -9983.739   -9808.9971    -9983.739            0    9479.8376    24.585158    24.620522     22.65574    13713.507     9523.235    9288.0893    9628.1885   -146.71254   -5.6861435    83.432639   -7913.0539 
 7244000    44.540238   -9986.1772   -9816.3695   -9986.1772            0    8853.9404    24.616264    24.592592    22.719014    13753.585    8544.4775    9348.9968    8668.3469   -7.6568035   -445.99357   -7.0493195    -8040.429 
 7245000    45.293754    -9982.693   -9810.0126    -9982.693            0    8734.7919    24.631441    24.640312     22.66575    13756.442    8747.6981    8392.5409    9064.1366   -84.687817   -486.00373   -179.75591   -8057.6072 
 7246000     44.56934   -9982.8505   -9812.9318   -9982.8505            0    9203.0064     24.63208    24.629398    22.634174    13731.549    8887.9392    9140.4768    9580.6031   -404.13908   -890.85417    31.221782   -7969.9327 
 7247000     46.66247   -9981.6212   -9803.7226   -9981.6212            0    8472.6001    24.638531    24.639414     22.67832    13767.531     8211.452    8902.9192    8303.4291   -365.22658    276.00859   -195.96433   -8102.5489 
 7248000     43.08071   -9981.9366   -9817.6933   -9981.9366            0    9404.6474    24.586855    24.650258     22.65437    13730.186    9954.3486    8604.7848    9654.8089   -201.77344    75.219076   -374.38393   -7934.5003 
 7249000    43.272546   -9989.1966   -9824.2219   -9989.1966            0    8542.1422    24.622076    24.640976    22.689669    13766.094    8283.0534    8362.2182     8981.155    14.584544   -835.39853   -295.27103   -8109.2642 
 7250000    46.688432   -9983.2978   -9805.3002   -9983.2978            0    8933.8007     24.52975    24.700792    22.675207    13739.005    9659.8554    8438.3633    8703.1835   -180.93701    258.39486   -236.99175   -8015.2409 
Loop time of 533.359 on 64 procs for 250000 steps with 1920 atoms

Performance: 80.996 ns/day, 0.296 hours/ns, 468.727 timesteps/s
195.5% CPU use with 32 MPI tasks x 2 OpenMP threads

MPI task timing breakdown:
Section |  min time  |  avg time  |  max time  |%varavg| %total
---------------------------------------------------------------
Pair    | 71.512     | 74.116     | 76.263     |  11.1 | 13.90
Bond    | 0.8693     | 1.0325     | 1.332      |  10.9 |  0.19
Kspace  | 246.09     | 252.25     | 260.19     |  20.5 | 47.29
Neigh   | 0.13845    | 0.14894    | 0.16799    |   1.9 |  0.03
Comm    | 77.133     | 86.29      | 93.009     |  39.0 | 16.18
Output  | 0.67887    | 0.68006    | 0.68181    |   0.0 |  0.13
Modify  | 92.257     | 97.764     | 102.73     |  29.3 | 18.33
Other   |            | 21.08      |            |       |  3.95

Nlocal:        60.0000 ave          62 max          58 min
Histogram: 1 0 4 0 0 22 0 4 0 1
Nghost:        3639.53 ave        3659 max        3617 min
Histogram: 1 1 4 2 3 9 8 0 2 2
Neighs:        22141.0 ave       22924 max       21367 min
Histogram: 1 2 0 4 11 6 5 1 1 1

Total # of neighbors = 708511
Ave neighs/atom = 369.01615
Ave special neighs/atom = 2.0000000
Neighbor list builds = 250
Dangerous builds = 0

unfix		3
unfix		2
unfix		1

write_data	data.final.${pid}
write_data	data.final.1
System init for write_data ...
PPPM initialization ...
  extracting TIP4P info from pair style
  using 12-bit tables for long-range coulomb (../kspace.cpp:340)
  G vector (1/distance) = 0.37551877
  grid = 30 30 30
  stencil order = 5
  estimated absolute RMS force accuracy = 0.0031484749
  estimated relative force accuracy = 9.4815387e-06
  using double precision FFTW3
  3d grid and FFT values/proc = 5400 960
Last active /omp style is kspace_style pppm/tip4p/omp
WARNING: Not all mixed pair coeffs generated from mixing. Use write_data with 'pair ij' option to store all pair coeffs. (../write_data.cpp:312)

write_restart   restart.lmp.${pid}
write_restart   restart.lmp.1
System init for write_restart ...
PPPM initialization ...
  extracting TIP4P info from pair style
  using 12-bit tables for long-range coulomb (../kspace.cpp:340)
  G vector (1/distance) = 0.37551877
  grid = 30 30 30
  stencil order = 5
  estimated absolute RMS force accuracy = 0.0031484749
  estimated relative force accuracy = 9.4815387e-06
  using double precision FFTW3
  3d grid and FFT values/proc = 5400 960
Last active /omp style is kspace_style pppm/tip4p/omp
Total wall time: 0:08:53
