LAMMPS data file via write_data, version 30 Jul 2021, timestep = 11250000

972 atoms
2 atom types
648 bonds
1 bond types
324 angles
1 angle types

-0.046185818167549186 20.046186818159008 xlo xhi
-0.11688304016778872 20.116884040163356 ylo yhi
-0.11464382471588941 20.814641824715416 zlo zhi

Masses

1 1.008
2 15.999

Pair Coeffs # lj/cut/tip4p/long/omp

1 0 0
2 0.21084 3.1668

Bond Coeffs # harmonic/omp

1 450 0.9572

Angle Coeffs # harmonic/omp

1 55 104.52

Atoms # full

31 11 2 -1.1794 0.9104688775603554 2.1712668081202557 2.1077672746769154 0 0 0
18 6 1 0.5897 4.1264401465927945 3.3783976024462308 3.431202773378253 0 0 0
33 11 1 0.5897 1.5884630433954279 2.231571566846504 1.4346777469364016 0 0 0
23 8 1 0.5897 2.7917579911764006 1.0598432764477836 4.627634208418105 0 0 0
16 6 2 -1.1794 4.044123436614642 4.3060662295774526 3.652256671899683 0 0 0
5 2 1 0.5897 4.139820849761706 0.8784703122940156 2.543464326429437 0 0 0
10 4 2 -1.1794 1.2803338154518367 4.135173395467859 3.861059109657424 0 0 0
11 4 1 0.5897 1.1031008733038754 3.397936204243674 3.2768236902489414 0 0 0
12 4 1 0.5897 2.22963137090956 4.251314415690413 3.819766983553559 0 0 0
4 2 2 -1.1794 4.085100351842882 1.4436994212318404 3.3140542679554135 0 0 0
236 79 1 0.5897 0.9064858403160196 0.3531514161926885 1.8590418384332057 0 1 0
32 11 1 0.5897 0.10756197041999724 2.4463046922775864 1.665008439137917 0 0 0
17 6 1 0.5897 4.045051277639349 4.755168196093136 2.8069162008730295 0 0 0
1 1 2 -1.1794 2.5045053752650603 2.4610524584259057 -0.042665609752719755 0 0 0
3 1 1 0.5897 3.414613032759581 2.2107123809358566 0.11669272795928981 0 0 0
6 2 1 0.5897 4.802851289872202 1.152702852481575 3.8766305720526995 0 0 0
102 34 1 0.5897 0.36039868692117333 1.0597379400064924 5.076414449763355 1 0 0
22 8 2 -1.1794 2.1395695105343564 0.8574480451798775 5.29848524933332 0 0 0
356 119 1 0.5897 1.540625647067693 2.3844970596828334 8.804761851200436 0 0 0
355 119 2 -1.1794 0.7768155169315267 2.1462088910786994 9.330255539904062 0 0 0
325 109 2 -1.1794 2.75584890788249 2.698860575538235 7.362494274258556 0 0 0
326 109 1 0.5897 2.3937061665429273 2.1542611469819657 6.663538737472109 0 0 0
327 109 1 0.5897 3.6954635374337306 2.727842824020626 7.181798498372813 0 0 0
27 9 1 0.5897 2.3477113742148426 4.474371328235863 6.634741415021059 0 0 0
330 110 1 0.5897 4.119405056379519 0.9366780932693779 9.320856222114369 0 0 0
357 119 1 0.5897 0.027062405051651056 2.4211911948496536 8.80246229714434 0 0 0
561 187 1 0.5897 1.0305687413983036 0.4853550017166691 8.86371332671512 0 1 0
81 27 1 0.5897 0.0970716091920075 4.487318715140594 5.167070633475408 1 0 0
24 8 1 0.5897 2.4247825342522975 0.020793437999553688 5.665765585952985 0 0 0
328 110 2 -1.1794 3.954831132267304 1.612034098245473 9.978946641282517 0 0 0
348 116 1 0.5897 2.5529166795144906 0.8910649969321631 11.41224025147442 0 0 0
651 217 1 0.5897 1.6113487727693854 2.2060937017250413 14.818541233420502 0 0 0
650 217 1 0.5897 2.0120315543548877 1.9638390799665286 13.378796051648226 0 0 0
347 116 1 0.5897 1.072123700005447 0.7394944758941383 11.688778386292825 0 0 0
329 110 1 0.5897 4.542774716593044 1.391473518596622 10.701444168277032 0 0 0
649 217 2 -1.1794 2.2174660808140714 2.5054948582570993 14.140827113250152 0 0 0
346 116 2 -1.1794 1.9198067108279167 0.8180497705526064 12.126515713658351 0 0 0
336 112 1 0.5897 1.7404954415605434 4.699574119260672 10.934090945981943 0 0 0
340 114 2 -1.1794 3.583680505003179 4.475869371816166 10.625059530801087 0 0 0
350 117 1 0.5897 2.2364353039407168 4.234596832772362 13.880175419603233 0 0 0
334 112 2 -1.1794 0.8202591412830506 4.565224387836052 10.707249733508764 0 0 0
683 228 1 0.5897 4.1560688123521 2.7170327036208044 14.32200123012851 0 0 0
332 111 1 0.5897 4.937944349520829 4.349590698814342 11.847717080839113 0 0 0
335 112 1 0.5897 0.7536455297752864 3.62903744752903 10.519341959215323 0 0 0
341 114 1 0.5897 3.7161925410574392 3.564970272323991 10.362667984280897 0 0 0
681 227 1 0.5897 0.22841857311893538 2.849494125637154 16.546050667867043 0 0 0
653 218 1 0.5897 3.265799804457608 0.8776877087465804 17.552297128085584 0 0 0
670 224 2 -1.1794 1.7623712761723482 0.792916175390727 18.673789559066662 0 0 0
658 220 2 -1.1794 0.7438083200036099 4.422397762215083 17.304751330996332 0 0 0
659 220 1 0.5897 0.4652229474290941 4.74436739545344 18.16210809987235 0 0 0
666 222 1 0.5897 3.590265458837118 3.007708133383653 17.102679270604845 0 0 0
664 222 2 -1.1794 3.390143362855337 3.941564238886065 17.16654120865028 0 0 0
654 218 1 0.5897 3.880650729650382 0.7633581950731385 16.173524527629752 0 0 0
652 218 2 -1.1794 3.974054907506198 1.2223400662608594 17.008339366165174 0 0 0
665 222 1 0.5897 2.450624085487553 3.97390678139942 17.34712802592638 0 0 0
671 224 1 0.5897 1.9873078867037446 1.4753257120014331 19.306244515717054 0 0 0
672 224 1 0.5897 0.8528401457945016 0.9751480229127003 18.437340408531384 0 0 0
2 1 1 0.5897 2.5311975481012268 3.4127478639512194 20.787760024622045 0 0 -1
656 219 1 0.5897 4.6966087904413865 4.141154864201351 18.750606829367563 0 0 0
679 227 2 -1.1794 0.25928860741623333 2.08983735352097 15.964475482379848 0 0 0
884 295 1 0.5897 0.3476975907769366 0.0027290751033124117 15.656428090134842 0 1 0
132 44 1 0.5897 1.1439814698112616 7.512386174556155 5.069213863425101 0 0 0
13 5 2 -1.1794 4.367971906705541 5.780638910376508 1.454388625913157 0 0 0
141 47 1 0.5897 1.0972552011472807 8.034412842521581 1.8544844303054933 0 0 0
139 47 2 -1.1794 1.0793045168217414 8.972908234427335 1.6671474450209223 0 0 0
113 38 1 0.5897 4.894360653611194 7.698933031353039 4.126350657648532 0 0 0
114 38 1 0.5897 3.438406307882893 7.930288175328116 3.781590367866876 0 0 0
15 5 1 0.5897 4.314293066206654 6.597235188711385 1.9508289442975904 0 0 0
140 47 1 0.5897 0.7620262217547844 9.373183518302126 2.476728011798799 0 0 0
674 225 1 0.5897 1.6001539691059343 5.695366327357234 0.3757261233979391 0 0 1
112 38 2 -1.1794 4.326673990506312 8.09336536204832 3.4642103804050923 0 0 0
110 37 1 0.5897 2.2068371379049423 9.548598024323496 0.20788984368860414 0 0 0
19 7 2 -1.1794 0.8179396077925903 6.221545102535874 2.000230967000541 0 0 0
14 5 1 0.5897 3.5728751552325146 5.770950194441181 0.9214349035293161 0 0 0
20 7 1 0.5897 1.0854415458413256 5.56535870600115 2.6437639771593298 0 0 0
433 145 2 -1.1794 2.7526755687251705 9.491687494077295 6.970046679468177 0 0 0
25 9 2 -1.1794 2.4055065359150922 5.422529597598729 6.752484467622534 0 0 0
463 155 2 -1.1794 0.7323267131496893 8.836077225132112 8.718040128714845 0 0 0
435 145 1 0.5897 2.4174197773652177 9.024611127426658 6.204694978686219 0 0 0
337 113 2 -1.1794 4.473629595584221 5.940015274088437 8.385514984630873 0 0 0
339 113 1 0.5897 3.8995384480319015 5.801646377800056 7.632124629392487 0 0 0
26 9 1 0.5897 1.6931376742103628 5.63324427598416 7.356188000977315 0 0 0
343 115 2 -1.1794 0.34528162904014237 6.172005478432149 8.371911641826031 0 0 0
464 155 1 0.5897 1.5296582732706352 8.994507234118995 8.212546657672494 0 0 0
345 115 1 0.5897 0.33170401674383304 7.099089564987909 8.609713628861622 0 0 0
131 44 1 0.5897 2.3236344707422503 6.829408084846721 5.728088244967956 0 0 0
437 146 1 0.5897 4.244586440359619 7.249388201167464 9.584984842584912 0 0 0
468 156 1 0.5897 4.407338330125878 9.314561251544788 7.185941111070778 0 0 0
344 115 1 0.5897 0.5817321325741074 5.719958531778679 9.18189162762553 0 0 0
465 155 1 0.5897 0.02026146680520842 9.072087292687158 8.123383537536935 0 0 0
342 114 1 0.5897 3.962085177725392 4.988779206851321 9.91088532693202 0 0 0
438 146 1 0.5897 4.1727120169564325 8.687773200898944 10.05162303900584 0 0 0
443 148 1 0.5897 1.5322288499733347 9.90842315353974 10.308163365951238 0 0 0
130 44 2 -1.1794 2.0876135922510297 7.596542387596677 5.206494863271227 0 0 0
436 146 2 -1.1794 4.027298596338357 7.788499098550645 10.345538357974128 0 0 0
351 117 1 0.5897 3.2331329732306235 5.349347915461493 14.116716852777914 0 0 0
792 264 1 0.5897 4.365739101429729 9.533955023810114 14.532113752355977 0 0 0
454 152 2 -1.1794 1.6314700885493085 7.756461487061715 12.096562888880898 0 0 0
455 152 1 0.5897 2.3737282316073998 7.834701547509452 11.497156688423438 0 0 0
456 152 1 0.5897 1.72437847659057 6.884836923199412 12.481104484034104 0 0 0
759 253 1 0.5897 2.226920589961413 8.835736076851612 13.563959555462555 0 0 0
349 117 2 -1.1794 2.411694860736721 5.151127302255151 13.666941723798724 0 0 0
757 253 2 -1.1794 2.445923499689874 9.389364690932295 14.313513734889902 0 0 0
668 223 1 0.5897 1.1414575308771675 5.902158599727797 14.70097839233029 0 0 0
669 223 1 0.5897 0.5902445042902432 7.0792762811509125 15.477172683290004 0 0 0
661 221 2 -1.1794 4.464251451341989 5.870569253794384 15.364458351828505 0 0 0
667 223 2 -1.1794 0.3727313354943912 6.191713009253262 15.192391328749931 0 0 0
675 225 1 0.5897 2.342876305501309 6.254174359111756 20.10995480037522 0 0 0
780 260 1 0.5897 2.4445488483997333 7.520173603859944 18.1903412572845 0 0 0
778 260 2 -1.1794 1.988914029242435 7.6376639990463175 19.023964032955348 0 0 0
858 286 1 0.5897 0.21429262802565485 7.300535826869199 18.678196595054906 1 0 0
779 260 1 0.5897 2.079923962616601 8.570591378836875 19.217783243101806 0 0 0
760 254 2 -1.1794 4.126676493538686 8.03722695128669 16.879656246521364 0 0 0
788 263 1 0.5897 0.7426262676197186 9.374275372855429 16.92954857891535 0 0 0
787 263 2 -1.1794 0.6785932905370902 8.792580289086308 16.1720344666157 0 0 0
761 254 1 0.5897 3.9878394680259275 8.971348177181506 17.035583988785618 0 0 0
660 220 1 0.5897 0.5486477510109572 5.141126108834658 16.703423051297598 0 0 0
663 221 1 0.5897 4.140707601125482 6.696632447457348 15.723852849493836 0 0 0
662 221 1 0.5897 4.058244759615614 5.196436184824897 15.90942573814206 0 0 0
673 225 2 -1.1794 2.2751531899514075 5.475698528766549 20.662786958173868 0 0 0
762 254 1 0.5897 4.626898046818017 7.738863697023702 17.639323771964264 0 0 0
789 263 1 0.5897 1.374737353680365 9.086336465731266 15.584295180051532 0 0 0
124 42 2 -1.1794 4.198280932190329 10.918990798584854 3.58743240906713 0 0 0
118 40 2 -1.1794 1.337351002209816 10.798025801323194 3.850099266590707 0 0 0
120 40 1 0.5897 1.0534818583008587 11.50366435932451 3.2690141299847757 0 0 0
123 41 1 0.5897 4.347571910955398 12.127156163195735 2.0543048413367018 0 0 0
127 43 2 -1.1794 0.7096867350276994 12.93175146966168 2.1583051554894843 0 0 0
125 42 1 0.5897 4.825756732200085 11.207185774960662 4.250430700685502 0 0 0
119 40 1 0.5897 2.291711589281237 10.870420338649206 3.867129966225295 0 0 0
121 41 2 -1.1794 4.613718180470805 12.799821146882612 1.4274605204584998 0 0 0
129 43 1 0.5897 0.7958081084500098 13.865161839376029 2.3518604126963716 0 0 0
783 261 1 0.5897 1.5769967646166216 12.846964413833733 0.5309221818074932 0 0 1
122 41 1 0.5897 3.930604092524308 12.786835304910344 0.7569794658771802 0 0 0
240 80 1 0.5897 2.6780214663785715 14.353855152671468 4.319564401315998 0 0 0
222 74 1 0.5897 4.49196146151237 14.175113931929806 2.803363497425668 0 0 0
220 74 2 -1.1794 4.106429985633383 14.725270658161635 3.485253027607921 0 0 0
238 80 2 -1.1794 2.0051202796017225 14.284719221196616 4.99688682324612 0 0 0
317 106 1 0.5897 0.2029651233467321 14.023970486844599 4.920896848201624 1 0 0
126 42 1 0.5897 4.418332522615175 10.000497988674367 3.431965159172437 0 0 0
781 261 2 -1.1794 2.3515725547826274 12.63817577672073 0.00866412111242934 0 0 1
782 261 1 0.5897 2.3139988059837795 11.688803180302484 -0.10739697448660172 0 0 1
188 63 1 0.5897 -0.04513322639272843 10.996072191642234 4.884686271968057 1 0 0
133 45 2 -1.1794 2.6205054535833026 12.127624289023505 6.640889761715767 0 0 0
134 45 1 0.5897 1.8462191933795624 12.17604132482974 7.2016797139142135 0 0 0
135 45 1 0.5897 3.358857027813777 12.22643604298383 7.242051215707207 0 0 0
239 80 1 0.5897 2.240413268829553 13.498481832902387 5.489548535747994 0 0 0
445 149 2 -1.1794 4.679644646231899 12.509040487932687 8.335203068647575 0 0 0
446 149 1 0.5897 4.657757068354658 13.34240988828707 8.805566309130525 0 0 0
450 150 1 0.5897 4.629507903372271 11.235474025001336 9.619740322228676 0 0 0
453 151 1 0.5897 0.8933637539032658 12.070596606914696 9.270699416738124 0 0 0
451 151 2 -1.1794 0.6176777329386591 12.740582846007195 8.645085753532872 0 0 0
573 191 1 0.5897 1.0594199844481305 14.54752616400081 8.717533051066534 0 0 0
448 150 2 -1.1794 4.238489486899836 10.585961145426916 10.2041340866959 0 0 0
434 145 1 0.5897 2.5705949358263367 10.413469045386258 6.787365521906304 0 0 0
544 182 2 -1.1794 4.403150956143001 14.595589384149223 10.285359359866908 0 0 0
563 188 1 0.5897 2.3641996599508674 13.77879494999587 12.31610181410535 0 0 0
545 182 1 0.5897 3.5198811516677533 14.525862397039349 10.647765878730743 0 0 0
562 188 2 -1.1794 2.0969585164226934 14.534108219860096 11.792336970151242 0 0 0
758 253 1 0.5897 2.323903355838511 10.283693602740845 13.994983546133282 0 0 0
457 153 2 -1.1794 2.2280713945119937 12.264287235823929 13.602551600144762 0 0 0
458 153 1 0.5897 1.450834529282635 12.319840582417665 14.158590836697186 0 0 0
459 153 1 0.5897 2.958242315670614 12.457367592447369 14.190696023702086 0 0 0
444 148 1 0.5897 2.5596331245974504 10.957464177692273 10.676935804069249 0 0 0
512 171 1 0.5897 -0.014302190252237772 10.936811519333508 12.012779244402871 1 0 0
449 150 1 0.5897 4.7028102916875305 10.69898427315548 11.033570222680833 0 0 0
442 148 2 -1.1794 1.618400068327993 10.783270600909473 10.68690501743927 0 0 0
769 257 2 -1.1794 4.594532529877041 12.339294335487525 15.32715380009172 0 0 0
642 214 1 0.5897 0.043130353377311484 14.183562180903733 12.024261207040526 1 0 0
546 182 1 0.5897 4.975125164736612 14.278519174091354 10.984398804464481 0 0 0
777 259 1 0.5897 0.588708851996443 13.692551228552507 15.533585727581453 0 0 0
869 290 1 0.5897 3.579604453773526 14.412496346558314 17.579370619340935 0 0 0
767 256 1 0.5897 0.4593916662574856 11.115940927365893 18.61349334110843 0 0 0
768 256 1 0.5897 0.9038627268121535 11.58954116407003 17.245929199020033 0 0 0
886 296 2 -1.1794 2.2479311115381586 14.54483068663364 19.09261538607869 0 0 0
775 259 2 -1.1794 0.41534807645638633 12.758711702527025 15.65223077812979 0 0 0
766 256 2 -1.1794 1.1458056927847426 10.99627555974428 17.957087112954724 0 0 0
773 258 1 0.5897 3.037514120875556 10.98842242145764 17.82624721937428 0 0 0
888 296 1 0.5897 2.381498245160317 13.708209932055881 19.53810821798494 0 0 0
772 258 2 -1.1794 3.861745276332426 10.703324455693549 17.43166506442875 0 0 0
774 258 1 0.5897 3.98149727539362 11.283848984819441 16.6800450270826 0 0 0
965 322 1 0.5897 0.3441421983160416 14.70705636547805 18.82620743130775 1 0 0
868 290 2 -1.1794 4.274859854355931 14.68880228852808 16.982199325445848 0 0 0
771 257 1 0.5897 4.496272089140071 13.09988488360363 15.899963202863946 0 0 0
111 37 1 0.5897 3.4688938337360815 10.208637363213441 20.623818197328312 0 0 -1
109 37 2 -1.1794 2.561715736219463 10.02008267993492 20.38347909400985 0 0 -1
227 76 1 0.5897 1.1769924935624838 18.463786351713495 3.181543204030961 0 0 0
234 78 1 0.5897 3.1614511333527955 17.523066294632805 3.975374427920502 0 0 0
229 77 2 -1.1794 4.682832671596333 19.28589463441921 1.4967877921347397 0 0 0
235 79 2 -1.1794 0.84064066676056 19.66153345516062 1.6234028291169746 0 0 0
226 76 2 -1.1794 1.3520058791871814 17.87719798325907 3.9174559462002554 0 0 0
230 77 1 0.5897 4.329202514218812 19.202116228255825 0.6111941888705316 0 0 0
232 78 2 -1.1794 4.118420070800117 17.5413520334629 3.991155883011774 0 0 0
248 83 1 0.5897 0.8475411466894816 16.370497851659064 2.921337995776062 0 0 0
249 83 1 0.5897 1.529879680366781 16.07532388517331 1.6024496488219018 0 0 0
228 76 1 0.5897 0.6887659328139316 18.105050051392425 4.5690300899720295 0 0 0
233 78 1 0.5897 4.355164813033627 18.241192375646825 3.3825078128331727 0 0 0
890 297 1 0.5897 1.8647283184291787 19.00517721450408 0.27274075785639745 0 0 1
221 74 1 0.5897 4.208648665784123 15.619189168355085 3.1586497266931834 0 0 0
247 83 2 -1.1794 0.8167648197281947 15.779930122965293 2.1686261921755405 0 0 0
219 73 1 0.5897 3.418300932021395 16.08101851839563 0.1948390487265444 0 0 0
217 73 2 -1.1794 2.5013836332421517 16.35591028443054 0.19865219563822173 0 0 0
241 81 2 -1.1794 2.858745219438525 18.894832813092883 6.735785260762414 0 0 0
559 187 2 -1.1794 0.9546218133930515 19.766410998719934 8.811157487648352 0 0 0
243 81 1 0.5897 2.305693850619524 19.087173446186647 7.49306588237236 0 0 0
242 81 1 0.5897 2.8977104195178134 17.938979717681363 6.703660161478073 0 0 0
558 186 1 0.5897 4.663483687053829 17.924951793537215 9.535619923316192 0 0 0
555 185 1 0.5897 4.443602590217805 19.269373976101107 7.563129703712669 0 0 0
553 185 2 -1.1794 4.953784346471174 19.4157403474199 8.359776033109604 0 0 0
542 181 1 0.5897 2.352852793477815 15.685350744535885 7.595553813355586 0 0 0
571 191 2 -1.1794 0.9142420503659358 15.493640361174949 8.715932044734533 0 0 0
541 181 2 -1.1794 2.9233391787037406 15.942027880466423 6.870988311415993 0 0 0
576 192 1 0.5897 4.558248646560765 15.889433528282325 7.426600192959941 0 0 0
572 191 1 0.5897 1.3184679320634722 15.799835505649282 9.527809782801492 0 0 0
543 181 1 0.5897 2.6424574751792957 15.3935763717736 6.138451351059854 0 0 0
551 184 1 0.5897 1.556446661490837 18.61080899752912 10.04695385576854 0 0 0
560 187 1 0.5897 0.015287432866434289 19.596269127227576 8.882113662860808 0 0 0
557 186 1 0.5897 4.364988288136808 16.556956362934095 10.111278506790653 0 0 0
556 186 2 -1.1794 4.291325756369423 17.491672862742888 10.303794320423139 0 0 0
866 289 1 0.5897 3.77835438069148 16.10513734138372 14.177735375609242 0 0 0
865 289 2 -1.1794 2.9205150533446456 16.105252454022015 13.752959486526569 0 0 0
879 293 1 0.5897 4.269433179853398 19.21756925320253 14.658311251624855 0 0 0
565 189 2 -1.1794 2.637445996631688 18.93800401455004 13.74519421763617 0 0 0
566 189 1 0.5897 2.814548118094725 18.024014162478423 13.522757424607109 0 0 0
885 295 1 0.5897 1.0367436533903385 19.362462469357997 14.630136062561135 0 0 0
867 289 1 0.5897 2.305517617673752 15.889216103528856 14.453995605405035 0 0 0
567 189 1 0.5897 2.4737008827275133 19.362532772213644 12.903009764033582 0 0 0
550 184 2 -1.1794 1.6857827492554813 18.090779986242335 10.840136457846993 0 0 0
564 188 1 0.5897 2.3230556146736627 15.292033124152898 12.33149147016995 0 0 0
883 295 2 -1.1794 0.359151642966409 19.34581219791245 15.306117548663927 0 0 0
552 184 1 0.5897 2.5861585779482654 17.77249581857421 10.774291263090584 0 0 0
621 207 1 0.5897 0.2324753225494417 18.017657624011203 12.08029022512334 1 0 0
896 299 1 0.5897 0.22606474096297463 15.549712805869353 15.286305716345776 0 0 0
877 293 2 -1.1794 4.934506551798368 19.045923287437795 15.32505873131927 0 0 0
897 299 1 0.5897 1.1507109009507814 16.08058826635066 16.36116230399186 0 0 0
876 292 1 0.5897 0.8677835655106307 18.21019666864606 16.488798773008085 0 0 0
874 292 2 -1.1794 1.2145970493604286 17.61826678295386 17.156345511410073 0 0 0
882 294 1 0.5897 3.8861978328951743 16.35083405880464 16.986082304326544 0 0 0
880 294 2 -1.1794 3.893030906388674 17.2844529928195 17.19708073378304 0 0 0
881 294 1 0.5897 2.9796374491394753 17.492727053522806 17.39375267311693 0 0 0
891 297 1 0.5897 2.080907996392298 19.62103481265132 19.83597129253335 0 0 0
875 292 1 0.5897 0.7491251805256046 17.860344246169003 17.957005564992556 0 0 0
895 299 2 -1.1794 1.083358704471503 15.404648273492572 15.68674679833761 0 0 0
878 293 1 0.5897 4.584711538004772 18.311387653415316 15.82939249845754 0 0 0
887 296 1 0.5897 2.3851544298315472 15.203703735191176 19.77330452439584 0 0 0
873 291 1 0.5897 4.881794586402456 17.72572739498826 18.714000476468854 0 0 0
889 297 2 -1.1794 2.417012323291299 18.943403331970877 20.422593030238176 0 0 0
218 73 1 0.5897 2.501925054599543 17.19952435126272 20.67570131639131 0 0 -1
68 23 1 0.5897 8.143100275558954 1.805562696924284 1.3442079502712356 0 0 0
69 23 1 0.5897 6.665617017241006 1.981989464403965 1.6237755339050153 0 0 0
67 23 2 -1.1794 7.498527988172435 1.7829850072968743 2.051582193157953 0 0 0
46 16 2 -1.1794 7.6467470992867606 3.971964827355941 3.6786816200778576 0 0 0
47 16 1 0.5897 7.536685894517641 3.132284877071339 3.232527685434653 0 0 0
34 12 2 -1.1794 5.171134773581194 2.178022744104342 0.3492894130518471 0 0 0
48 16 1 0.5897 6.863099529788194 4.059922396158032 4.221352311922285 0 0 0
58 20 2 -1.1794 9.291537554141689 0.5549735498047782 4.733302940313499 0 0 0
28 10 2 -1.1794 6.188123923677197 0.4230200055738147 4.89963476095995 0 0 0
29 10 1 0.5897 7.111783619129694 0.5545288012645844 4.685353333336101 0 0 0
53 18 1 0.5897 9.824746047874546 3.8796547044406693 3.5310342789180016 0 0 0
9 3 1 0.5897 5.064565119637191 4.489519736435942 5.101190437663963 0 0 0
710 237 1 0.5897 9.31025317517251 4.335285682752763 -0.0888934247624249 0 0 1
391 131 2 -1.1794 7.3706326819065096 1.7824860731912906 8.725532979352742 0 0 0
362 121 1 0.5897 9.106382832199827 3.489305864835034 6.479574821745077 0 0 0
358 120 2 -1.1794 5.407162434459187 2.2807691474332628 6.774080437940134 0 0 0
392 131 1 0.5897 7.901084348312846 1.9633864166796582 7.949503535912719 0 0 0
360 120 1 0.5897 5.681634436118805 2.107839798339533 7.674694107705275 0 0 0
60 20 1 0.5897 9.170783963652584 1.3172907430024048 5.299463217430805 0 0 0
393 131 1 0.5897 7.581084953422263 0.8771959364601415 8.954358447889659 0 0 0
8 3 1 0.5897 5.906784654881843 3.9312653152173533 6.22864826018203 0 0 0
359 120 1 0.5897 5.579702495900038 1.4620468549997017 6.309167027114092 0 0 0
361 121 2 -1.1794 9.15036147717668 2.577225519907524 6.766602235337688 0 0 0
7 3 2 -1.1794 5.795870367545542 4.707212240239204 5.679227648838262 0 0 0
371 124 1 0.5897 7.444624593953659 3.047963323237341 9.80028973231322 0 0 0
381 127 1 0.5897 7.555423375191368 4.815907825255955 8.91323367789718 0 0 0
370 124 2 -1.1794 7.682638544412344 3.8057681548776907 10.334461718338629 0 0 0
717 239 1 0.5897 6.462310124442294 2.49398469536464 15.544306972162905 0 0 0
686 229 1 0.5897 8.60332456406817 2.0526816781134944 14.764164313638595 0 0 0
353 118 1 0.5897 6.259355236938284 0.8156790498447448 11.776901574838613 0 0 0
372 124 1 0.5897 6.995636249636733 3.8561445783633306 10.99917838243746 0 0 0
384 128 1 0.5897 8.86336906670999 0.507120975791657 11.411676081633829 0 0 0
354 118 1 0.5897 5.299662497116313 1.2132976539474714 12.878298979748124 0 0 0
382 128 2 -1.1794 8.109817437963242 0.658413069835544 11.982315123895122 0 0 0
352 118 2 -1.1794 5.41525588762533 0.5852794237810256 12.165194374982075 0 0 0
685 229 2 -1.1794 9.091898666750986 2.276997038809981 13.972163853434882 0 0 0
383 128 1 0.5897 8.439008300433926 1.2437246609841266 12.66444128209304 0 0 0
684 228 1 0.5897 5.4889332538889795 3.2132150011555622 13.802937155645203 0 0 0
377 126 1 0.5897 9.83165364229843 3.413296259473706 10.695928532426674 0 0 0
386 129 1 0.5897 8.872926422029543 4.168866673854768 13.955994908952295 0 0 0
331 111 2 -1.1794 5.77818111062226 4.377443796065455 12.30549608398307 0 0 0
682 228 2 -1.1794 5.07761443525693 2.4699663439359396 14.244123039885979 0 0 0
687 229 1 0.5897 9.996479403471668 2.0355826072517336 14.171693122223935 0 0 0
708 236 1 0.5897 7.668396565086183 0.4768300164690644 18.870310715598222 0 0 0
694 232 2 -1.1794 7.831247532388198 3.9809590308918033 18.208190752038412 0 0 0
715 239 2 -1.1794 7.148407582948421 2.2480992637739874 16.164886225419117 0 0 0
716 239 1 0.5897 7.041786257084364 1.3037179889925323 16.27875332111745 0 0 0
677 226 1 0.5897 5.203062645248138 0.7232876581507616 18.34431186805586 0 0 0
702 234 1 0.5897 9.654611800630647 3.6369438449622757 18.186095382469247 0 0 0
655 219 2 -1.1794 5.39863311902958 4.308174032685936 19.37958641614501 0 0 0
676 226 2 -1.1794 5.71398604583838 0.42776912886726304 19.097940123597724 0 0 0
657 219 1 0.5897 6.1950173906254795 4.02240842445113 18.931879100350713 0 0 0
695 232 1 0.5897 7.708188385878545 3.2345732579888153 17.62165494078861 0 0 0
706 236 2 -1.1794 8.608531092131392 0.29741604560505475 18.85416007855938 0 0 0
696 232 1 0.5897 7.740023581653228 4.747966083037818 17.642831752541085 0 0 0
38 13 1 0.5897 9.171675507072171 1.589795115178088 20.035994777200592 0 0 -1
35 12 1 0.5897 5.254854605347922 1.4342651469426013 20.681886076438374 0 0 -1
36 12 1 0.5897 5.350152292055183 2.9442477440080874 20.73350793565431 0 0 -1
689 230 1 0.5897 9.667558264089537 0.5285825208850355 17.267011353403113 0 0 0
37 13 2 -1.1794 9.299294298149942 2.2048837416666363 20.758225815864527 0 0 -1
55 19 2 -1.1794 7.075169213420696 5.63730542412197 1.3766279517882416 0 0 0
57 19 1 0.5897 7.118398868947727 5.227264453930084 2.2405231215626227 0 0 0
177 59 1 0.5897 7.904364388389158 8.57264469081161 1.0814227384708899 0 0 0
175 59 2 -1.1794 7.399197900084158 8.540583144219132 1.8939110674300466 0 0 0
142 48 2 -1.1794 5.211721117793235 9.217149648150473 0.25811678482903705 0 0 0
176 59 1 0.5897 7.098192261438888 7.633928367540522 1.9537481516243576 0 0 0
56 19 1 0.5897 6.138650705569915 5.711755911883066 1.1928926076643669 0 0 0
711 237 1 0.5897 8.655393285832199 5.470631860276091 0.6688250370928212 0 0 1
143 48 1 0.5897 5.917810552237556 8.98448808918116 0.8611363503260683 0 0 0
166 56 2 -1.1794 8.69812457286628 7.271129628471335 4.461347122315311 0 0 0
138 46 1 0.5897 7.027305197382302 7.350977567298692 5.000048980846821 0 0 0
167 56 1 0.5897 9.05277544333964 6.444168681504544 4.787806712206807 0 0 0
709 237 2 -1.1794 9.403475614739609 5.2675187914844015 0.10715419784759514 0 0 1
168 56 1 0.5897 9.009312350388887 7.928153267968657 5.084041113030589 0 0 0
501 167 1 0.5897 6.570822133579987 8.768851380276075 8.565200408167865 0 0 0
469 157 2 -1.1794 8.969925378420184 9.243782596362779 6.550279613585986 0 0 0
380 127 1 0.5897 7.112847900227812 6.234726898940299 8.625231208474888 0 0 0
467 156 1 0.5897 5.608161835985126 8.582477517136565 6.625393256430943 0 0 0
499 167 2 -1.1794 7.351063592747219 8.446803242128306 9.016706231371193 0 0 0
61 21 2 -1.1794 9.449290973908758 5.461439234324203 6.5097978482919245 0 0 0
466 156 2 -1.1794 5.352058387726006 9.2108903999558 7.300515439173938 0 0 0
471 157 1 0.5897 8.470451875279881 9.009107905390332 7.332422980447413 0 0 0
62 21 1 0.5897 8.65305802602869 5.570537550413067 7.029846079607959 0 0 0
500 167 1 0.5897 7.541379037017853 9.116045258574756 9.674108700196632 0 0 0
470 157 1 0.5897 9.87877939146367 9.047892891440998 6.778151565767125 0 0 0
379 127 2 -1.1794 7.201843672684132 5.372459183239762 8.2193032737152 0 0 0
136 46 2 -1.1794 6.145776232065525 7.438686673211738 5.362660217781834 0 0 0
338 113 1 0.5897 5.355593426057204 5.786338257755169 8.046604843211243 0 0 0
137 46 1 0.5897 5.924912412175349 6.560220075906033 5.672017490655321 0 0 0
387 129 1 0.5897 8.806188268616497 5.653790014534963 13.66894913171061 0 0 0
460 154 2 -1.1794 6.163615370067247 7.4671383597224015 12.12986167814106 0 0 0
461 154 1 0.5897 5.505735379840743 7.515916707285416 11.436196483134557 0 0 0
491 164 1 0.5897 9.399667577484642 6.872941702733197 11.564446230101076 0 0 0
333 111 1 0.5897 5.879498796482734 5.292923028502194 12.56581454505315 0 0 0
462 154 1 0.5897 5.7810603687066795 7.9563842865157035 12.858284780271257 0 0 0
490 164 2 -1.1794 8.925346448215322 6.8456913060271605 12.395478398298666 0 0 0
791 264 1 0.5897 5.599539210273814 8.727817545589685 14.878416597465117 0 0 0
492 164 1 0.5897 8.070516696526717 7.227834574707851 12.196559501462989 0 0 0
793 265 2 -1.1794 9.418557971774817 9.09509517098646 14.503262531677926 0 0 0
794 265 1 0.5897 9.45492173823893 8.425649944924253 13.820034794149866 0 0 0
790 264 2 -1.1794 5.199610911240138 9.233291494540408 14.170721975116983 0 0 0
385 129 2 -1.1794 8.923122514319363 5.024992412354668 14.381151387887584 0 0 0
795 265 1 0.5897 9.240970942645337 9.909239552593439 14.03223904556234 0 0 0
825 275 1 0.5897 7.960860336758174 8.87603341381196 15.449951329455043 0 0 0
815 272 1 0.5897 8.808482146046954 6.471006298235284 19.448539672482795 0 0 0
785 262 1 0.5897 5.347683115729527 6.3525691605633 19.32898234964228 0 0 0
816 272 1 0.5897 8.519413221434803 7.954384014230639 19.537297514015627 0 0 0
784 262 2 -1.1794 5.582065770802771 7.2562572470692 19.117727017715467 0 0 0
824 275 1 0.5897 7.249223351095316 8.013610847418487 16.47067824659704 0 0 0
786 262 1 0.5897 6.538647375028829 7.254062302706805 19.082057594720304 0 0 0
814 272 2 -1.1794 8.298697610967718 7.168807352253591 19.036890849407804 0 0 0
823 275 2 -1.1794 7.226953404531952 8.88009249651767 16.064546243151128 0 0 0
144 48 1 0.5897 5.295306549580491 8.59202483291902 20.46733681374645 0 0 -1
804 268 1 0.5897 7.5930261551382445 9.941773836418012 17.532541043499585 0 0 0
703 235 2 -1.1794 7.245033085309206 5.907250759376715 16.392479455864752 0 0 0
797 266 1 0.5897 9.659371842347513 7.539569038003178 17.89441913235207 0 0 0
145 49 2 -1.1794 9.16648393314943 9.099431575302233 20.690880614280104 0 0 -1
705 235 1 0.5897 7.692255775196515 5.636883732588016 15.590481817039496 0 0 0
704 235 1 0.5897 6.3314029106534475 5.657505981070348 16.253698844950883 0 0 0
164 55 1 0.5897 6.8694257330272475 12.78213866774754 1.4993849012042917 0 0 0
246 82 1 0.5897 5.570300450769176 14.427933784853945 4.890997919057311 0 0 0
156 52 1 0.5897 8.947269762035402 10.957896159209586 3.5360997851085285 0 0 0
165 55 1 0.5897 7.942713637668827 12.306646725101258 2.4554907275055693 0 0 0
154 52 2 -1.1794 7.995316823343256 10.857799293027178 3.5262796581195373 0 0 0
163 55 2 -1.1794 7.760539446318146 12.972705598892547 1.7925836745070405 0 0 0
819 273 1 0.5897 8.67347225200013 12.251405277511147 0.38842331353680326 0 0 1
116 39 1 0.5897 6.915831161760704 11.124864247367077 4.995432794727297 0 0 0
285 95 1 0.5897 7.751274545779993 14.719279996665616 1.8103617127033773 0 0 0
274 92 2 -1.1794 8.897544899773855 14.242879831732603 4.979734439644161 0 0 0
155 52 1 0.5897 7.845601994734045 10.031558743195543 3.066771132647099 0 0 0
171 57 1 0.5897 9.621589407150168 10.881127848685587 6.227660634557744 0 0 0