LAMMPS data file via write_data, version 30 Jul 2021, timestep = 6250000

1296 atoms
2 atom types
864 bonds
1 bond types
432 angles
1 angle types

-10.594008617189342 12.574008617189342 xlo xhi
-9.102618700514098 12.092616700514098 ylo yhi
0.18455761449976826 21.67544138550643 zlo zhi
-9.310228843164259 1.818072551779642 2.5446218322873495 xy xz yz

Masses

1 1.008
2 15.999

Pair Coeffs # lj/cut/tip4p/long/omp

1 0 0
2 0.21084 3.1668

Bond Coeffs # harmonic/omp

1 450 0.9572

Angle Coeffs # harmonic/omp

1 55 104.52

Atoms # full

282 94 1 0.5897 -10.407548799803534 -3.979708014778436 1.5493834314444845 1 1 0
280 94 2 -1.1794 -9.582087306293532 -4.46438283544537 1.5500638205054016 1 1 0
299 100 1 0.5897 -6.638245132967747 -7.918951552896053 4.192428495261015 1 1 0
163 55 2 -1.1794 -7.06792509429429 -7.902528219037329 1.1326433541556769 1 1 0
164 55 1 0.5897 -6.287778654832307 -8.24681108968813 1.5674157101855726 1 1 0
270 90 1 0.5897 -8.548693289676583 -7.492890596317823 2.18324198134303 1 1 0
269 90 1 0.5897 -9.31892946246238 -6.19054688996159 2.2369505120102007 1 1 0
268 90 2 -1.1794 -9.328257852974877 -7.089679271060164 2.5653361487838104 1 1 0
324 108 1 0.5897 -7.161953762063259 -4.295049027610856 3.640716172843699 1 1 0
73 25 2 -1.1794 -8.405458925846613 -3.782341750325844 4.843438597113643 1 0 0
298 100 2 -1.1794 -6.0579415537423165 -7.159852390612293 4.1351776197190535 1 1 0
314 105 1 0.5897 -9.024538126000063 -6.636826901380978 4.341780187344956 1 1 0
310 104 2 -1.1794 -3.5969238898399754 -8.297079682281742 3.8935904348164505 1 1 0
300 100 1 0.5897 -5.1806002593847715 -7.534106750208295 4.054746400266614 1 1 0
322 108 2 -1.1794 -6.500111097163543 -4.679328549247581 3.0657550637420443 1 1 0
260 87 1 0.5897 -6.83753505531849 -6.204620692927768 0.4694887121909452 1 1 0
313 105 2 -1.1794 -8.995027622877728 -6.371327707181592 5.260897127341589 1 1 0
315 105 1 0.5897 -8.944951634856372 -5.415784231506947 5.233212444603989 1 1 0
75 25 1 0.5897 -9.23012398032967 -3.389663905063614 4.557145017139581 1 0 0
261 87 1 0.5897 -6.761038356418176 -4.939631371377883 1.2976865673728744 1 1 0
323 108 1 0.5897 -6.3951854852995496 -5.575401997404145 3.385766941681023 1 1 0
275 92 1 0.5897 -10.692263869568876 -7.899489822043286 3.323481046075642 1 1 0
318 106 1 0.5897 -2.7564541465698396 -4.224661606801219 1.8318506104164938 1 1 0
304 102 2 -1.1794 -1.4130558423087152 -7.134880689555578 2.7507656427076412 1 1 0
311 104 1 0.5897 -2.816611502796328 -7.965078144915274 3.449588926352442 1 1 0
242 81 1 0.5897 -0.9464686872565977 -6.725028307304162 4.609760250651947 0 1 0
243 81 1 0.5897 -0.7434525676637822 -5.495001444157832 5.468679285909604 0 1 0
306 102 1 0.5897 -0.7812547373336098 -7.481918909182982 2.120951260853122 1 1 0
305 102 1 0.5897 -1.4982384998955283 -6.209662060179722 2.520353625860823 1 1 0
3 1 1 0.5897 -1.3095673236421472 -3.63491784793092 4.698049333711376 0 0 0
316 106 2 -1.1794 -1.8963347042232002 -4.635754643636261 1.7453227471276482 1 1 0
317 106 1 0.5897 -1.2801734192090741 -3.903287362209518 1.736362217521002 1 1 0
259 87 2 -1.1794 -6.685625937728128 -5.262074323564098 0.3996312224293612 1 1 0
293 98 1 0.5897 -4.959504576912592 -3.7229440295062792 2.5299128542557283 1 1 0
281 94 1 0.5897 -8.906029053523199 -3.786762019799575 1.5479078885041195 1 1 0
165 55 1 0.5897 -7.3620669524174165 -8.61652353647973 0.5670694500110995 1 1 0
201 67 1 0.5897 0.26650189295911275 -8.522755477613467 0.22759289369998864 1 1 0
241 81 2 -1.1794 -0.8789398033574791 -6.4411635096760875 5.521347315594433 0 1 0
74 25 1 0.5897 -8.097019375825663 -3.2081711030591356 5.5443900715449175 1 0 0
420 140 1 0.5897 -9.153619524542178 -6.50994051628096 9.923703664259936 1 0 0
414 138 1 0.5897 -6.868037491273239 -4.976623665614483 7.557376972803814 1 0 0
413 138 1 0.5897 -7.652563136840638 -3.72693008670878 7.896508597283028 1 0 0
412 138 2 -1.1794 -7.489764756797899 -4.622389390585602 8.193183610745697 1 0 0
350 117 1 0.5897 -7.133983599575853 -4.209866778365413 9.956890217109617 0 0 0
429 143 1 0.5897 -6.547918999096046 -6.981226240988179 8.647580114843215 1 0 0
428 143 1 0.5897 -6.579691148329303 -7.114538597867568 10.155198953015235 1 0 0
427 143 2 -1.1794 -5.999982593413732 -6.890796274792441 9.42710365882274 1 0 0
618 206 1 0.5897 -8.029796532074785 -7.313174758745863 6.592022214003405 1 1 0
419 140 1 0.5897 -8.901984022205456 -5.615902049040882 8.728152821510783 1 0 0
418 140 2 -1.1794 -9.605352624178417 -5.993292107533094 9.25644611530944 1 0 0
627 209 1 0.5897 -10.43373902000566 -6.707152251335706 6.319833457289233 1 1 0
349 117 2 -1.1794 -7.047862672219481 -3.927912183791612 10.867501041322031 0 0 0
544 182 2 -1.1794 0.20936818156616255 -8.107032555679314 7.427591591268253 0 1 0
335 112 1 0.5897 -5.031015217904164 -5.369244465514202 9.47192749374255 0 0 0
631 211 2 -1.1794 -5.485262016726152 -5.370921113037605 6.30746862673407 1 1 0
616 206 2 -1.1794 -7.537823492016711 -7.788025103604469 7.261858629463705 1 1 0
359 120 1 0.5897 -4.740862566463712 -3.070199908332391 8.57848102978708 0 0 0
347 116 1 0.5897 -1.3164523850517185 -5.5471492896722845 8.899083673003192 0 0 0
334 112 2 -1.1794 -4.372935901823364 -4.6814257564699435 9.37152011333055 0 0 0
348 116 1 0.5897 -1.6316219903295028 -6.58034503974233 9.959844139213189 0 0 0
336 112 1 0.5897 -3.5543647209362037 -5.153191358354011 9.21762750815152 0 0 0
404 135 1 0.5897 -5.315508887045492 -3.758077326670758 5.71155179762318 1 0 0
632 211 1 0.5897 -4.694633970808871 -5.781109850872916 6.657994900680554 1 1 0
554 185 1 0.5897 -2.810516371224903 -6.608950275419174 7.74167598017086 0 1 0
555 185 1 0.5897 -2.565818586981946 -6.826502937789712 6.263659750272351 0 1 0
553 185 2 -1.1794 -3.24452159305738 -6.888676196945468 6.935779729191381 0 1 0
346 116 2 -1.1794 -2.042605286219681 -6.0315702733585 9.291883641080016 0 0 0
546 182 1 0.5897 -0.08105923826507144 -7.560053619239227 6.697732534539577 0 1 0
356 119 1 0.5897 0.9773577313656467 -7.3564496215668935 10.097388835083576 0 0 0
626 209 1 0.5897 -10.52554927312236 -6.680537639590939 7.830646608112068 1 1 0
351 117 1 0.5897 -6.874041778783881 -2.9881820855111387 10.812353128647722 0 0 0
340 114 2 -1.1794 0.05874747893915888 -4.708320693770524 8.144195626015382 0 0 0
633 211 1 0.5897 -5.830250114205352 -6.009467000662173 5.68345546289901 1 1 0
357 119 1 0.5897 1.2183865257999216 -7.2821689066462705 8.6046962080277 0 0 0
652 218 2 -1.1794 -5.474963221399014 -5.466331418307981 12.765954442059947 0 0 0
780 260 1 0.5897 -7.389620176044505 -4.112991748109885 15.585519626961961 0 0 0
779 260 1 0.5897 -7.162469294748034 -3.152630127926006 14.437435956622226 0 0 0
778 260 2 -1.1794 -7.851118551618036 -3.6305716897425766 14.899594300483285 0 0 0
768 256 1 0.5897 -9.432586971584428 -2.8620728712125327 15.05593747883972 0 0 0
654 218 1 0.5897 -5.843185391185901 -4.8694537518182655 12.114500370765354 0 0 0
653 218 1 0.5897 -6.237944979737818 -5.8554834707313885 13.193354655703228 0 0 0
740 247 1 0.5897 -10.561383196628274 -3.567765228211422 12.225281147538764 1 0 0
729 243 1 0.5897 -7.857739988975249 -7.2247585983985 12.093484743860355 1 0 0
684 228 1 0.5897 -8.188584727915632 -6.6361117091394295 14.4537151265105 0 0 0
682 228 2 -1.1794 -7.475853759150082 -6.925996713224999 13.884284810006237 0 0 0
663 221 1 0.5897 -8.446838875784728 -4.41930144927021 12.024687451904505 0 0 0
662 221 1 0.5897 -8.77052208040526 -4.4325143818980814 13.503475364090136 0 0 0
661 221 2 -1.1794 -9.151438629066137 -4.610691922387204 12.643688158361483 0 0 0
767 256 1 0.5897 -10.902299366783321 -3.2248689042669882 15.046310507286757 0 0 0
788 263 1 0.5897 -4.896249475750767 -4.709001783376413 15.752245436487478 0 0 0
698 233 1 0.5897 -1.2384696193422453 -4.218330169978257 13.159326287268614 0 0 0
657 219 1 0.5897 -0.49049260025775254 -7.185560116417909 12.004130082881495 0 0 0
689 230 1 0.5897 1.2571150714481245 -6.165413266862945 12.986685784779695 0 0 0
789 263 1 0.5897 -4.737373791176094 -4.811500741214496 14.250260394437744 0 0 0
774 258 1 0.5897 -5.222710369160026 -2.6534426471246366 12.974693862958363 0 0 0
739 247 2 -1.1794 -11.39699654164509 -3.155008026877658 12.007040313954397 1 0 0
802 268 2 -1.1794 -2.7553603132633917 -2.2829971052503186 14.73195138737884 0 0 0
678 226 1 0.5897 -4.005407766219611 -6.403921956719657 12.530370172041192 0 0 0
697 233 2 -1.1794 -1.6343319457566743 -4.429794016673417 12.313954769964857 0 0 0
667 223 2 -1.1794 -3.9389887817567937 -3.1037695890384622 11.592383736370676 0 0 0
676 226 2 -1.1794 -3.1525792748986436 -6.787176068424884 12.325201936731919 0 0 0
787 263 2 -1.1794 -4.303908851324232 -4.479285752670955 15.036275832507176 0 0 0
677 226 1 0.5897 -2.563734333619644 -6.036192825578095 12.250718481138241 0 0 0
699 233 1 0.5897 -0.949268859286283 -4.23811289067548 11.673487025872323 0 0 0
668 223 1 0.5897 -3.1084711991717278 -3.532789150571169 11.798367568131045 0 0 0
816 272 1 0.5897 0.17908818609603117 -4.1466395736683115 15.175773160242697 0 0 0
814 272 2 -1.1794 -0.21345437258790234 -3.5489250750156742 14.539454443780023 0 0 0
804 268 1 0.5897 -1.8470468302524132 -2.583253044795434 14.764473036966969 0 0 0
803 268 1 0.5897 -3.2750570630041285 -3.0856619540078967 14.7755656404805 0 0 0
795 265 1 0.5897 -2.8698942002137446 -5.501613331184146 15.16337898489373 0 0 0
793 265 2 -1.1794 -2.1050196167520916 -6.001871990813985 15.447927855537888 0 0 0
720 240 1 0.5897 -0.8647001371651672 -6.68145572504722 14.306591627906345 0 0 0
718 240 2 -1.1794 -0.12413652202730852 -7.018559139545424 13.802388803768784 0 0 0
766 256 2 -1.1794 -10.30676882420616 -2.4815216551073673 15.141204874785618 0 0 0
757 253 2 -1.1794 -9.750100655002866 -6.15724579080789 15.585898401353008 0 0 0
758 253 1 0.5897 -9.456338745768411 -5.591892473262208 16.30018933218401 0 0 0
727 243 2 -1.1794 -7.97308699787879 -7.480667710957379 11.178430102855653 1 0 0
749 250 1 0.5897 -10.161484669062224 -6.283372965858588 12.268758908138002 1 0 0
772 258 2 -1.1794 -5.907724801335814 -2.274994800804956 13.525897042891437 0 0 0
794 265 1 0.5897 -1.7714603270596747 -5.520272897851077 16.20483650406998 0 0 0
655 219 2 -1.1794 -0.4675995863684612 -7.513275402064471 11.10511264997599 0 0 0
669 223 1 0.5897 -4.362436784810917 -3.6896031782751395 10.964986603916707 0 0 0
1089 363 1 0.5897 -6.27954719143041 -4.897656659826385 17.611233150260247 0 0 0
1152 384 1 0.5897 -6.936920799537845 -4.161471030678351 19.726977527164237 0 0 0
1225 409 2 -1.1794 -8.266313777978452 -3.7074958748928477 20.995908493853655 0 0 0
1227 409 1 0.5897 -8.99333388526412 -3.2190003815009023 20.609828658140593 0 0 0
1109 370 1 0.5897 -8.649100908984526 -3.854415698095215 17.71929495952937 0 0 0
1108 370 2 -1.1794 -9.312714316810096 -4.544107762367139 17.731848061179278 0 0 0
1151 384 1 0.5897 -6.03925304414505 -5.379122507845716 19.665756694860633 0 0 0
1150 384 2 -1.1794 -6.114243876576298 -4.47741511077876 19.353251172860844 0 0 0
1125 375 1 0.5897 1.104712070742714 -4.771077234197337 17.377173088871906 0 0 0
1187 396 1 0.5897 1.6706072058498407 -5.299629397698457 19.528231844747758 0 0 0
1219 407 2 -1.1794 -10.439256108893744 -2.1499595340378974 20.315530073133232 0 0 0
1087 363 2 -1.1794 -6.350560622079075 -5.14198523371852 16.688527827712555 0 0 0
1179 393 1 0.5897 -0.7915518044225891 -5.321467420959712 21.585220126188467 0 0 0
1097 366 1 0.5897 -9.096122230086333 -6.0425843244694875 18.437564928840203 0 0 0
1178 393 1 0.5897 -1.0352164485817656 -6.537492929935601 20.716997415759636 0 0 0
1141 381 2 -1.1794 -8.5498206838998 -6.421533614878022 21.476855224313432 0 0 0
1121 374 1 0.5897 -4.836083423550558 -3.5007784433416314 18.65976679285201 0 0 0
1142 381 1 0.5897 -8.609780380179242 -6.653524371409803 20.550189197455893 0 0 0
1130 377 1 0.5897 -7.186506855062005 -1.952381021216068 18.673634402716566 0 0 0
1124 375 1 0.5897 0.9983899036889419 -6.001372324288968 16.501392337919732 0 0 0
1123 375 2 -1.1794 1.0600873298901021 -5.046921228828728 16.461721736821637 0 0 0
1177 393 2 -1.1794 -1.033059601325986 -6.2467255755066695 21.62891421723552 0 0 0
1129 377 2 -1.1794 -7.660375895017406 -2.2204295418861317 17.886443611635777 0 0 0
1110 370 1 0.5897 -10.137984379382228 -4.0804160369209574 17.874060247679857 0 0 0
1145 382 1 0.5897 -1.0897826282785807 -3.6141281151546316 17.551762721711683 0 0 0
1146 382 1 0.5897 -2.580050239831131 -3.8772265834596853 17.511176629768585 0 0 0
1263 421 1 0.5897 -1.1503954699299381 -3.2465461668028137 20.59910117016851 0 0 0
1144 382 2 -1.1794 -1.7330091483882946 -4.322675229510658 17.53063976808931 0 0 0
1257 419 1 0.5897 -3.0539727486774266 -2.4159519177073303 19.45595294796702 0 0 0
1122 374 1 0.5897 -4.614475670380264 -2.5513089387591013 17.50158241399567 0 0 0
1133 378 1 0.5897 -1.4001400163333084 -5.874122573522723 18.46992316017272 0 0 0
1120 374 2 -1.1794 -4.145734029483345 -3.0835685326878997 18.144394170330607 0 0 0
1188 396 1 0.5897 0.9611730318040799 -3.9774126197601944 19.730008375606864 0 0 0
1255 419 2 -1.1794 -2.5758917756789135 -2.345250357620703 20.282096387577454 0 0 0
1256 419 1 0.5897 -3.235986364164628 -2.5075821529357363 20.956021259119893 0 0 0
1261 421 2 -1.1794 -0.3373933609300295 -3.6055385503686095 20.954563608440814 0 0 0
1165 389 2 -1.1794 -0.15219943578794037 -2.1009672710304343 17.555602567746256 0 0 0
1248 416 1 0.5897 -5.785629498573337 -1.774456916886578 20.68120441615303 0 0 0
1143 381 1 0.5897 -8.614861565197733 -5.466560043205289 21.489881488061478 0 0 0
1088 363 1 0.5897 -6.492190587336951 -6.088626062465338 16.701151662673077 0 0 0
1132 378 2 -1.1794 -1.182221698552551 -6.72100810477132 18.859346929891522 0 0 0
1131 377 1 0.5897 -7.060040079408821 -2.025387556839533 17.166858873579727 0 0 0
1221 407 1 0.5897 -10.813843544135914 -2.488058932553047 19.502230920248614 0 0 0
1262 421 1 0.5897 -0.10605796274752777 -3.012959072972386 21.669747465200295 0 0 0
1226 409 1 0.5897 -7.865334989522207 -3.094069873151957 21.61159421682509 0 0 0
89 30 1 0.5897 -4.6433847298879085 1.1196686487146756 2.27239744253952 1 0 0
256 86 2 -1.1794 -12.106076757379174 -3.199250066033713 1.9093232972743026 1 1 0
84 28 1 0.5897 -8.04072624085168 -0.5573288304476325 3.8483174478157767 1 0 0
107 36 1 0.5897 -9.23313880115011 1.4108945074269954 3.253088441628132 1 0 0
271 91 2 -1.1794 -10.254632062232703 -0.7384939667891288 1.0344702110339061 1 1 0
272 91 1 0.5897 -9.454862515759231 -1.085209571713099 1.4298812905809042 1 1 0
82 28 2 -1.1794 -8.951840706632083 -0.26387642168409897 3.8514785240630953 1 0 0
54 18 1 0.5897 -11.57048398048066 -0.37252416171371294 2.1408474750269875 1 0 0
83 28 1 0.5897 -9.460816407751524 -1.063072553260767 3.987545002258814 1 0 0
25 9 2 -1.1794 -4.121062039462533 0.8138183083902515 5.355720185009835 0 0 0
258 86 1 0.5897 -12.602153251143557 -2.670339716845282 1.2845246457699573 1 1 0
67 23 2 -1.1794 -10.812377203207811 -2.366755788042463 4.198667679662967 1 0 0
68 23 1 0.5897 -11.474584564543486 -2.389665777368741 4.889469631867457 1 0 0
53 18 1 0.5897 -12.364496648134862 0.9013657599438556 2.3383179592290984 1 0 0
52 18 2 -1.1794 -12.215562805367016 0.03553692716036139 2.718472539530297 1 0 0
98 33 1 0.5897 -11.788136703290256 0.2460754433139396 4.560763789375505 1 0 0
69 23 1 0.5897 -11.294038067867834 -2.572620689956885 3.3976096817361316 1 0 0
301 101 2 -1.1794 -7.853312683084999 -2.191603980569515 1.513396847200644 1 1 0
88 30 2 -1.1794 -4.569915669560192 0.25938450415772785 2.6857592776611767 1 0 0
59 20 1 0.5897 -13.428159118508892 -0.9042201589780419 3.4406547519133817 1 0 0
94 32 2 -1.1794 -6.495760288257521 -1.2994363154587871 3.8301287677865403 1 0 0
27 9 1 0.5897 -4.032264723712447 1.7642065723104796 5.283348611279281 0 0 0
302 101 1 0.5897 -7.412732551779287 -1.9620392198390562 2.3314826213668454 1 1 0
95 32 1 0.5897 -5.81479021053986 -0.7167680185845988 3.4939185898464618 1 0 0
96 32 1 0.5897 -6.022661900277416 -1.940847937042717 4.360252107323182 1 0 0
26 9 1 0.5897 -4.102603780491483 0.5014865321745461 4.451144222178343 0 0 0
105 35 1 0.5897 -3.214001162148791 -2.628638946372461 3.628892129738463 1 0 0
294 98 1 0.5897 -4.583440656415475 -2.6567052082919274 1.523053580325183 1 1 0
103 35 2 -1.1794 -2.678465040421118 -2.3622170462501932 4.376082074185338 1 0 0
90 30 1 0.5897 -3.8444561567773645 -0.16563828636602906 2.2281901970992597 1 0 0
104 35 1 0.5897 -3.2780173558014614 -2.3865328793076577 5.12186484398823 1 0 0
303 101 1 0.5897 -7.189699294400805 -2.0556875411113182 0.8370878274354869 1 1 0
273 91 1 0.5897 -10.556036394012178 -1.435780752488526 0.45211915480040044 1 1 0
99 33 1 0.5897 -11.694553840320147 1.6050838405332843 5.221356455507994 1 0 0
292 98 2 -1.1794 -4.224287663772607 -3.1852040393308148 2.235740672925729 1 1 0
44 15 1 0.5897 -10.011285386362868 0.8987094724452653 0.2244325195528865 1 0 0
309 103 1 0.5897 -2.756337868714998 -1.3468262574043504 0.3264206720717839 1 1 0
417 139 1 0.5897 -8.880292973434338 0.8724868292496879 5.372908286212029 1 0 0
307 103 2 -1.1794 -2.5275551185233454 -0.902868698356885 1.1429277630024002 1 1 0
97 33 2 -1.1794 -11.723194839678682 0.668496647071775 5.417204438805015 1 0 0
411 137 1 0.5897 -13.30911006100877 0.25917694554085635 6.313053266439666 1 0 0
426 142 1 0.5897 -8.791769540448989 -1.7467696016689604 7.2444030297224 1 0 0
433 145 2 -1.1794 -6.732309689711576 -1.3234512068119795 10.261079298584903 0 0 0
537 179 1 0.5897 -9.504804074646406 -0.0852809319225809 8.681822020281482 1 0 0
535 179 2 -1.1794 -9.030807405108408 0.019165152521599893 9.50674068971632 1 0 0
536 179 1 0.5897 -9.6858007394048 -0.15260984599461835 10.183295013457968 1 0 0
528 176 1 0.5897 -12.226050158847926 0.4847845670847537 9.972362747886377 1 0 0
435 145 1 0.5897 -7.5265579725380904 -0.8962919866717272 9.940248505618088 0 0 0
424 142 2 -1.1794 -7.943742611767977 -2.186119750662101 7.180293512953833 1 0 0
402 134 1 0.5897 -10.756188372884527 -0.41364870488811434 6.668310220455324 1 0 0
401 134 1 0.5897 -11.16394402147937 -1.4015151581528098 7.740635627103126 1 0 0
527 176 1 0.5897 -11.898534136906814 1.3292871311167147 8.759308487716169 1 0 0
526 176 2 -1.1794 -12.634209350566476 0.971551560571351 9.256361354057999 1 0 0
400 134 2 -1.1794 -10.396315293614993 -1.0319741362063137 7.304252592186021 1 0 0
464 155 1 0.5897 -1.8727344690024132 0.0567970320525486 10.090478534522521 0 0 0
425 142 1 0.5897 -7.320856468767197 -1.4808661030200883 7.004564272816405 1 0 0
329 110 1 0.5897 -3.4451410679504573 -1.1585506261031755 7.733869313538318 0 0 0
415 139 2 -1.1794 -8.698598128613042 1.5125725402037897 6.060987539143126 1 0 0
339 113 1 0.5897 -5.658845084717237 0.4133461950506341 6.193180063425692 0 0 0
444 148 1 0.5897 -6.600657178480516 1.823946763650401 9.394784231212938 0 0 0
405 135 1 0.5897 -5.097700472210555 -2.4861260287393154 6.503164434569228 1 0 0
442 148 2 -1.1794 -7.452571678540506 2.255650061779418 9.459321960117663 0 0 0
454 152 2 -1.1794 -5.030858695701009 1.0849834971665757 9.142327099192414 0 0 0
358 120 2 -1.1794 -4.877689443322691 -2.1651184523832017 8.298348435787704 0 0 0
360 120 1 0.5897 -5.609486844749858 -1.8564816864853295 8.832673726353583 0 0 0
403 135 2 -1.1794 -5.094342093770111 -2.8321876272711872 5.6107616726963006 1 0 0
337 113 2 -1.1794 -6.3206561796190375 0.21437803746606932 6.855500205723023 0 0 0
456 152 1 0.5897 -4.560051668031155 0.5289650340974212 9.763151233757377 0 0 0
338 113 1 0.5897 -5.93847436387615 0.5230372017912721 7.676932801362513 0 0 0
455 152 1 0.5897 -4.342295275471368 1.542523138530452 8.65983550544409 0 0 0
330 110 1 0.5897 -3.2407881932503884 -0.1539576164157168 6.619849314371831 0 0 0
328 110 2 -1.1794 -2.7657985026663745 -0.7555888971163203 7.1931517715040085 0 0 0
416 139 1 0.5897 -7.93447367709126 1.1622153443995433 6.518757693328335 1 0 0
443 148 1 0.5897 -8.084806140172258 1.5371899796082946 9.477721417481385 0 0 0
410 137 1 0.5897 -13.5994721895242 0.2814247209285039 7.798632541020234 1 0 0
522 174 1 0.5897 -10.017489177232454 2.1868708690803462 7.289537221844932 1 0 0
434 145 1 0.5897 -6.480478920026909 -0.8141257568830955 11.031339505850221 0 0 0
806 269 1 0.5897 -4.229072698290497 2.800164569623412 13.037767093288787 0 0 0
770 257 1 0.5897 -11.88045548000552 2.4549141377202925 13.173385106096562 0 0 0
764 255 1 0.5897 -3.678905814424727 -1.2971188157739526 11.053050529134625 0 0 0
836 279 1 0.5897 -11.161150366164245 -1.3357320848993108 11.380106996793797 1 0 0
896 299 1 0.5897 -7.998061415076858 2.3199786394105164 15.517850602665419 0 0 0
761 254 1 0.5897 -9.572612963863879 1.0781264225359202 13.255173126549078 0 0 0
760 254 2 -1.1794 -8.914701039894634 1.5117601527779527 12.711709354665654 0 0 0
762 254 1 0.5897 -9.41776400906626 1.9267361552096656 12.01107338742078 0 0 0
792 264 1 0.5897 -11.530264467527074 0.277951775520231 14.667511815206957 0 0 0
837 279 1 0.5897 -11.149013277599385 -0.014572291505450252 12.119311792527744 1 0 0
791 264 1 0.5897 -10.548099262363214 -0.8329010109322557 14.361613436389412 0 0 0
790 264 2 -1.1794 -10.828402084914924 0.03285602441600943 14.064524102895186 0 0 0
785 262 1 0.5897 -5.867573237921161 1.0475299965802947 12.353401881220957 0 0 0
769 257 2 -1.1794 -12.422514484179779 2.2749876404597575 12.405356081332418 0 0 0
805 269 2 -1.1794 -4.7112970222696475 2.623062078914007 12.230203848001512 0 0 0
897 299 1 0.5897 -7.939966688084951 2.3403483775928144 14.00527087479437 0 0 0
771 257 1 0.5897 -11.821329813158716 2.350427534702204 11.664324533070555 0 0 0
819 273 1 0.5897 -5.471448113563879 -0.6431923457811077 15.958901645097331 0 0 0
784 262 2 -1.1794 -6.442777853990134 0.2877347758271771 12.443379944396934 0 0 0
826 276 2 -1.1794 -3.18532644058077 0.2126595281815753 13.568512205243902 0 0 0
895 299 2 -1.1794 -7.393967798076763 2.439742283157752 14.785065204610957 0 0 0
828 276 1 0.5897 -3.905785732838437 0.5624984481083946 14.092768709442968 0 0 0
818 273 1 0.5897 -5.655253824372949 -1.9413230710022429 15.20190601527784 0 0 0
773 258 1 0.5897 -6.010274662117835 -1.3803626295551101 13.201111154049507 0 0 0
924 308 1 0.5897 -2.8572486863476376 2.9994786260494166 15.294504205901676 0 0 0
786 262 1 0.5897 -7.317398285182569 0.6607203052960493 12.553838385814137 0 0 0
765 255 1 0.5897 -3.4328780895867617 -0.013553155265844552 11.817158586663696 0 0 0
827 276 1 0.5897 -3.0280083381739686 -0.6601479271494934 13.928812557152826 0 0 0
903 301 1 0.5897 -5.967615461231368 1.3916280408623187 15.02669157355522 0 0 0
901 301 2 -1.1794 -5.178803068107856 0.9281831791272097 15.30817655482714 0 0 0
817 273 2 -1.1794 -5.554878732525996 -1.5883249360699736 16.085901387039257 0 0 0
835 279 2 -1.1794 -11.193266363509718 -0.38935372748311003 11.23970430412036 1 0 0
888 296 1 0.5897 -10.582547170021698 2.561199012654905 15.24587579973381 0 0 0
763 255 2 -1.1794 -3.4670929463725146 -0.37170689059186657 10.930199955655906 0 0 0
807 269 1 0.5897 -4.093736567550797 2.835559233344844 11.530415328122492 0 0 0
886 296 2 -1.1794 -11.044664881170018 3.1305509346032636 14.630629046697184 0 0 0
902 301 1 0.5897 -4.874142395037611 1.4160382152934492 16.073225791666086 0 0 0
1137 379 1 0.5897 -2.8262647288168807 -1.2542052064977174 16.216797298076585 0 0 0
1251 417 1 0.5897 -11.584793418654552 1.743231415558558 21.57448898906081 0 0 0
1253 418 1 0.5897 -4.329052695182206 3.3220836486895173 17.31865018334365 0 0 0
1231 411 2 -1.1794 -2.0988878380683893 1.8728137124799034 16.463986800066465 0 0 0
1216 406 2 -1.1794 -12.409494940511317 2.6236573715097524 17.678490264192135 0 0 0
1286 429 1 0.5897 -3.82110738668659 0.47197133416567105 20.56712565503959 0 0 0
1246 416 2 -1.1794 -6.250799229185927 -1.2661503780650651 20.01677943728449 0 0 0
1135 379 2 -1.1794 -2.492174640103281 -0.7296543040298165 16.944362146685528 0 0 0
1206 402 1 0.5897 -11.463198795068607 -0.2674496076041333 18.39291490307773 0 0 0
1232 411 1 0.5897 -2.1355785161823064 0.9249820571607632 16.592956897663264 0 0 0
1099 367 2 -1.1794 -10.227339033420463 -0.8550149754295138 17.2848224453474 0 0 0
1100 367 1 0.5897 -9.402044182361607 -1.2135467474482304 17.61125484772154 0 0 0
1009 337 2 -1.1794 -11.121002838082918 3.4862163337116883 20.911469657666203 0 -1 0
1260 420 1 0.5897 -9.948070075280109 2.876780456179336 19.631828862309376 0 0 0
1259 420 1 0.5897 -9.071956192702087 1.6423459870356591 19.66070895922377 0 0 0
1258 420 2 -1.1794 -9.198732631049406 2.469986384298723 19.19672533641618 0 0 0
1236 412 1 0.5897 -8.076187743964928 -0.39008583244607387 20.343408027274187 0 0 0
1235 412 1 0.5897 -9.56563054982602 -0.6122512870839749 20.49832526123808 0 0 0
1234 412 2 -1.1794 -8.905636002882673 0.0783629902202474 20.437481383639692 0 0 0
1197 399 1 0.5897 -9.488746003593192 2.0928449846258435 17.411401716525432 0 0 0
1272 424 1 0.5897 -0.2343047141661323 -0.27975730385375464 20.018554738625674 0 0 0
1242 414 1 0.5897 -3.6854223993298127 -0.3199027733973061 18.220479772033286 0 0 0
1250 417 1 0.5897 -11.891534467541542 0.5416636924459706 20.706166617142244 0 0 0
1229 410 1 0.5897 -7.886670350619332 3.5475820884813167 18.42031664396329 0 0 0
1204 402 2 -1.1794 -12.099750403524759 0.22260961754067488 18.91344379485532 0 0 0
1295 432 1 0.5897 -1.4968290725366113 1.6293554986287546 19.58219020792761 0 0 0
1294 432 2 -1.1794 -1.629653599503511 2.51279108559582 19.23830633399406 0 0 0
1195 399 2 -1.1794 -9.656859862232709 1.7669939486029484 16.527277325202377 0 0 0
1270 424 2 -1.1794 -1.0662338237988802 0.08120252337756462 20.324975746491305 0 0 0
1271 424 1 0.5897 -1.6329752256512524 -0.682299498586973 20.43515771674577 0 0 0
1196 399 1 0.5897 -9.782187380139952 0.8245213788970798 16.63862954170051 0 0 0
1205 402 1 0.5897 -12.125978886815119 1.0889946790772882 18.50718767376651 0 0 0
1247 416 1 0.5897 -5.561856828176222 -0.7911573720791569 19.552020128839303 0 0 0
1136 379 1 0.5897 -1.6663883010491745 -1.1502438294830322 17.183958901762665 0 0 0
1254 418 1 0.5897 -5.758765501667339 2.866952364974276 17.520154913766184 0 0 0
1241 414 1 0.5897 -4.406667274527332 1.0105262211126362 18.26559837257458 0 0 0
1218 406 1 0.5897 -13.253203725975716 3.073276219161153 17.726068960229306 0 0 0
1045 349 2 -1.1794 -3.561478235513677 3.5171039641137067 21.03467675753147 0 -1 0
1252 418 2 -1.1794 -4.871931888692365 2.535929730357207 17.377938567060582 0 0 0
1296 432 1 0.5897 -2.3319628395377254 2.8770617624786112 19.77715515351825 0 0 0
1240 414 2 -1.1794 -4.271887095936406 0.2051665806293368 18.76515867236371 0 0 0
1287 429 1 0.5897 -3.5714420358941075 1.5910362402171305 21.555654033164494 0 0 0
1011 337 1 0.5897 -11.973464907196805 3.8239457614374146 20.636763804290837 0 -1 0
1217 406 1 0.5897 -11.763127989597617 3.329019192944644 17.648232627826125 0 0 0
1285 429 2 -1.1794 -3.755999118061937 0.6531239410085963 21.504712906313763 0 0 0
1233 411 1 0.5897 -1.946057579500021 2.228390425949028 17.339379649523075 0 0 0
866 289 1 0.5897 -12.577841119931172 1.4210424405906181 16.40302426501993 0 0 0
1101 367 1 0.5897 -10.439802763575663 -1.3961060537157266 16.52441467228222 0 0 0
1249 417 2 -1.1794 -11.927546742485513 0.8502238018720281 21.611491756687727 0 0 0
40 14 2 -1.1794 -15.070364086450635 4.013058699277575 1.6992285253326314 1 0 0
177 59 1 0.5897 -14.158114539521716 4.54925796134428 3.225936168186433 1 0 0
42 14 1 0.5897 -15.570539993786234 4.459353334806796 1.0159735379664008 1 0 0
55 19 2 -1.1794 -13.179692335305035 6.308566925270924 0.9937753343124678 1 0 0
56 19 1 0.5897 -12.423539075135086 5.846291586137109 1.3553855143868538 1 0 0
66 22 1 0.5897 -13.506474201773383 3.1620630479145486 1.4887121786783062 1 0 0
65 22 1 0.5897 -12.001157507913119 3.320696185925547 1.5140040496113887 1 0 0
64 22 2 -1.1794 -12.693813759639175 2.6620187888224027 1.565037258231381 1 0 0
191 64 1 0.5897 -12.826627993286 6.217546859080837 3.9843875292754936 1 0 0
183 61 1 0.5897 -12.116542232367827 3.7637200449226516 4.287667177708841 1 0 0
181 61 2 -1.1794 -11.320433533521319 3.376109198528251 4.651236158306259 1 0 0
176 59 1 0.5897 -14.415358425947169 4.44787964575338 4.71432525972112 1 0 0
175 59 2 -1.1794 -13.742207475268255 4.686443510813259 4.076981257082348 1 0 0
108 36 1 0.5897 -10.07102068623623 2.6369340971435182 3.5480898543983033 1 0 0
86 29 1 0.5897 -10.560638777841055 5.03230757133508 2.2671956492650653 1 0 0
85 29 2 -1.1794 -10.925376171250168 4.687948130129694 1.452044228547844 1 0 0
57 19 1 0.5897 -13.518684358326148 5.721866296585352 0.3177546037891198 1 0 0
182 61 1 0.5897 -11.161553550728986 3.866576616113024 5.457675055570936 1 0 0
198 66 1 0.5897 -6.970816235874828 6.80047715586994 2.053834899840897 1 0 0
45 15 1 0.5897 -9.849641600842089 2.1383097250000844 1.078366415764079 1 0 0
87 29 1 0.5897 -10.23798026355754 4.832222298910354 0.8017198849647583 1 0 0
106 36 2 -1.1794 -9.385204770108537 2.3110959122294723 2.965188175167113 1 0 0
190 64 2 -1.1794 -12.193162741188775 6.911385243700346 4.167456972414961 1 0 0
192 64 1 0.5897 -11.34636501905657 6.465296371314674 4.182283317575752 1 0 0
203 68 1 0.5897 -9.092857315306244 6.252780136924839 3.270361712898275 1 0 0
202 68 2 -1.1794 -9.8014733654093 5.806790142495794 3.7342739211182874 1 0 0
102 34 1 0.5897 -5.705640203876036 3.0953273411202495 1.670646059048352 1 0 0
78 26 1 0.5897 -7.846237518662028 4.361781907702216 1.071717299393208 1 0 0
212 71 1 0.5897 -6.828708664111967 4.501881806419792 4.843474138415482 1 0 0
213 71 1 0.5897 -6.633372094956845 4.398356666434795 3.3458619133630045 1 0 0
111 37 1 0.5897 -4.517797917157676 3.81524030920116 4.3601275331886695 0 0 0
211 71 2 -1.1794 -6.164095501427521 4.582844435839032 4.159380014979076 1 0 0
100 34 2 -1.1794 -4.8339398577752135 2.707723252251615 1.592060925398835 1 0 0
204 68 1 0.5897 -9.356981405407396 5.253276392647683 4.376368897003683 1 0 0
76 26 2 -1.1794 -7.414177934805348 3.8710601032809837 1.7708042054276791 1 0 0
77 26 1 0.5897 -8.10753323941591 3.329396946403854 2.147792479647775 1 0 0
167 56 1 0.5897 -16.637604538347308 6.305934299174291 3.2772506841352596 1 0 0