LAMMPS data file via write_data, version 30 Jul 2021, timestep = 22750000

972 atoms
2 atom types
648 bonds
1 bond types
324 angles
1 angle types

0.034395377559372164 19.96560562244136 xlo xhi
0.133516087674165 19.86648491233369 ylo yhi
0.033119216189209766 20.666878783809047 zlo zhi

Masses

1 1.008
2 15.999

Pair Coeffs # lj/cut/tip4p/long/omp

1 0 0
2 0.21084 3.1668

Bond Coeffs # harmonic/omp

1 450 0.9572

Angle Coeffs # harmonic/omp

1 55 104.52

Atoms # full

33 11 1 0.5897 1.7142594726720723 1.9112755300079787 1.3535499907236044 0 0 0
11 4 1 0.5897 0.8204819977208919 3.0735379610762927 3.3505417986406347 0 0 0
10 4 2 -1.1794 0.6247534468524673 3.7582231612591315 3.990188090465062 0 0 0
16 6 2 -1.1794 3.448084470503804 4.157761648677793 3.7300795175267534 0 0 0
31 11 2 -1.1794 1.0705683394273509 1.7373780253393352 2.0403770135164336 0 0 0
9 3 1 0.5897 4.757617640602284 4.612268597774491 4.909670553779879 0 0 0
4 2 2 -1.1794 4.48562629456442 1.6653799431114078 2.8352249476933333 0 0 0
29 10 1 0.5897 6.985301646708733 0.9555335738791974 4.932767304679918 0 0 0
18 6 1 0.5897 3.6168806622631875 3.271034047127114 3.411616803845969 0 0 0
67 23 2 -1.1794 7.219836713723818 1.8529997042877886 2.0764878472994153 0 0 0
12 4 1 0.5897 1.481777057977859 4.097480047935136 4.248387055839432 0 0 0
24 8 1 0.5897 2.5638536274204093 1.4000388433039974 4.078982327134778 0 0 0
17 6 1 0.5897 3.422455325694633 4.695999646279114 2.9389165640661528 0 0 0
48 16 1 0.5897 6.8565038552258315 4.509236932255051 4.273873114567147 0 0 0
5 2 1 0.5897 4.410773833662306 0.795879471374904 2.442070421072141 0 0 0
28 10 2 -1.1794 6.039339588509593 0.811322167578636 4.957188271871278 0 0 0
6 2 1 0.5897 5.196143043002844 1.5809485202633389 3.4711026119508164 0 0 0
32 11 1 0.5897 0.25120310796044865 2.093967674211306 1.6972144151139779 0 0 0
47 16 1 0.5897 7.4919179028472955 3.600667942638246 3.2429634439736192 0 0 0
68 23 1 0.5897 8.00852772868675 2.1686708068991005 1.6353475328339935 0 0 0
46 16 2 -1.1794 7.6217666065681176 4.429161222126834 3.7044264803398415 0 0 0
69 23 1 0.5897 6.502893262705747 2.100421786826521 1.4924953089722128 0 0 0
34 12 2 -1.1794 5.34045627434846 2.8892631715899175 0.12919065908371402 0 0 0
710 237 1 0.5897 9.14716230061939 4.635683371464534 0.08354397875420842 0 0 1
37 13 2 -1.1794 9.397746456579913 2.958310733715368 0.7376097354749489 0 0 0
58 20 2 -1.1794 8.805508041077132 0.9383940072936767 4.787642831031022 0 0 0
53 18 1 0.5897 9.339216811984272 4.493053950941467 3.52353140970796 0 0 0
22 8 2 -1.1794 2.320328789505164 1.328613734461984 5.001994310797781 0 0 0
2 1 1 0.5897 2.312260542455182 3.431442421354471 0.03615628416250871 0 0 0
325 109 2 -1.1794 2.946763778138529 2.6017606212497273 7.309807298076785 0 0 0
326 109 1 0.5897 2.7127464961679557 2.17916324783331 6.4833955578811615 0 0 0
327 109 1 0.5897 3.895885237467448 2.4951981318193828 7.373556909687749 0 0 0
356 119 1 0.5897 1.6070412396881857 2.4452353178773216 8.435645805670875 0 0 0
355 119 2 -1.1794 1.0133823220582328 2.1286938279751206 9.116591378517267 0 0 0
328 110 2 -1.1794 4.219933376564076 1.6765090985012243 10.168386945054825 0 0 0
359 120 1 0.5897 6.302739249447043 2.557069262777584 7.792191258292089 0 0 0
59 20 1 0.5897 8.868708140866813 1.6140033687509394 5.462789216250675 0 0 0
342 114 1 0.5897 4.357749809732572 4.736913290168787 9.62269097848352 0 0 0
358 120 2 -1.1794 5.641959644162053 2.5834385420235733 7.100091082514456 0 0 0
8 3 1 0.5897 5.704261243443942 3.9542582607801218 5.89096408674503 0 0 0
362 121 1 0.5897 9.32771550573871 3.73541713867429 6.649419887961145 0 0 0
7 3 2 -1.1794 5.56143606223013 4.7669845502586465 5.405895621499481 0 0 0
360 120 1 0.5897 5.824942932982994 1.8118663772707733 6.56399731523798 0 0 0
560 187 1 0.5897 0.5493765129712257 0.3480874536330504 8.671143266882744 0 1 0
392 131 1 0.5897 7.541613756302255 1.410832507999545 9.066251499470503 0 0 0
391 131 2 -1.1794 7.613168139163355 2.3476240871912375 8.883238654058545 0 0 0
393 131 1 0.5897 8.449938256442435 2.4399256173802555 8.427609688776197 0 0 0
27 9 1 0.5897 2.589267368659563 4.256845500727728 6.572544264095376 0 0 0
361 121 2 -1.1794 9.430774301895257 2.796268579281213 6.802920390779772 0 0 0
341 114 1 0.5897 4.216481584767166 3.382353954584681 10.283807180640844 0 0 0
357 119 1 0.5897 0.1574021136137168 2.4796451754940514 8.870839357442264 0 0 0
554 185 1 0.5897 4.4377166584692045 0.37412553527431164 9.04321242168366 0 1 0
371 124 1 0.5897 7.296409645796556 3.61503375760234 10.227373049117658 0 0 0
23 8 1 0.5897 2.6346613258612734 0.464213899734018 5.266952773619421 0 0 0
335 112 1 0.5897 1.1441589044699478 3.3409060763287304 10.238614928098489 0 0 0
102 34 1 0.5897 0.5273035536084735 1.1875373625651038 5.412626987859747 1 0 0
649 217 2 -1.1794 2.940422334606538 2.128147442442723 13.547204461459646 0 0 0
650 217 1 0.5897 2.630128430304278 1.5254829853464247 12.871366204375146 0 0 0
651 217 1 0.5897 2.3512852939493567 1.9825406631767517 14.287497897658584 0 0 0
330 110 1 0.5897 4.971952490188265 1.5744377868485528 10.75178745636689 0 0 0
331 111 2 -1.1794 5.734057806557001 4.986896603894803 12.765761916879166 0 0 0
384 128 1 0.5897 9.84832695540918 1.1789955702803778 10.849459133103709 0 0 0
351 117 1 0.5897 2.736380597414114 4.028392387291154 13.69041202238208 0 0 0
347 116 1 0.5897 1.1551903882262604 0.8239478141400127 11.462141584090679 0 0 0
382 128 2 -1.1794 9.105434574420006 0.822351283954451 11.336490969238412 0 0 0
683 228 1 0.5897 4.450949497990831 2.602002014694555 14.434555917540461 0 0 0
372 124 1 0.5897 6.866839470475554 4.47524835283372 11.396780655821543 0 0 0
370 124 2 -1.1794 7.542364115871533 4.3959745052490895 10.723232548336066 0 0 0
386 129 1 0.5897 8.659601187863124 4.491726508834569 13.053689687453709 0 0 0
685 229 2 -1.1794 8.891451407008864 2.2513094232343573 13.62715804845349 0 0 0
346 116 2 -1.1794 2.057019047663911 0.5055107179787148 11.501761664373499 0 0 0
340 114 2 -1.1794 4.162319042622987 4.3211439347813325 10.462492633100968 0 0 0
354 118 1 0.5897 6.14695684861449 1.5869351336221926 12.953300473267802 0 0 0
684 228 1 0.5897 5.544131713369058 3.640535752730242 14.299251925201172 0 0 0
682 228 2 -1.1794 5.31694245390246 2.837303404424362 14.767687970089627 0 0 0
353 118 1 0.5897 7.165555433660124 1.3571434880914568 11.857046688926022 0 0 0
686 229 1 0.5897 8.487829126337102 2.3020236372376246 14.493683923894206 0 0 0
383 128 1 0.5897 9.18071458973651 1.211246531850209 12.207931613657882 0 0 0
352 118 2 -1.1794 6.227263885616214 1.3099476609615326 12.040532353634422 0 0 0
336 112 1 0.5897 2.237001782778738 4.265817404147428 10.730738609444836 0 0 0
334 112 2 -1.1794 1.292686983351667 4.116801220271127 10.779136062561165 0 0 0
332 111 1 0.5897 5.129726524377189 4.714719681003698 12.075094694945957 0 0 0
329 110 1 0.5897 3.471448755700685 1.3834622034170785 10.688180744189573 0 0 0
349 117 2 -1.1794 2.6307952518471227 4.974001253500365 13.58623205620732 0 0 0
377 126 1 0.5897 9.372343635800922 4.670660699610627 10.606753161779517 0 0 0
687 229 1 0.5897 9.828035733788871 2.3606244039389184 13.791908208234643 0 0 0
680 227 1 0.5897 0.22614148939673828 2.1714423264662917 15.188115233109828 0 0 0
405 135 1 0.5897 0.11697561389262745 4.406123087614362 12.114559608839608 1 0 0
671 224 1 0.5897 1.9832154689576529 1.245927692983165 19.331231873324583 0 0 0
653 218 1 0.5897 3.1704476756278677 1.3795855084854016 17.77851190261528 0 0 0
658 220 2 -1.1794 1.213814257549333 3.8161470113024465 17.64973934599652 0 0 0
665 222 1 0.5897 2.9794750593880552 4.412254290088336 17.610238917009955 0 0 0
652 218 2 -1.1794 4.028288959449416 1.6661760173762095 17.46506795042885 0 0 0
664 222 2 -1.1794 3.889754975499016 4.638573586109964 17.41942815814672 0 0 0
666 222 1 0.5897 4.31161040648558 3.7998597304960753 17.23292890997051 0 0 0
36 12 1 0.5897 5.524408301836233 3.7388498586148655 20.36223870995149 0 0 -1
670 224 2 -1.1794 1.927182637471639 0.5660547361725204 18.659756309349483 0 0 0
672 224 1 0.5897 0.9885992314782999 0.41224451320759037 18.551687860458863 0 0 0
677 226 1 0.5897 5.499885780602068 1.4643717963400495 18.32579593801377 0 0 0
702 234 1 0.5897 9.45205286593584 4.497588335312843 17.575638709691862 0 0 0
681 227 1 0.5897 1.1991298764682636 2.4516202132689977 16.313684469295573 0 0 0
35 12 1 0.5897 5.461766443583948 2.258111956706875 20.053573512683496 0 0 -1
716 239 1 0.5897 7.780771281841557 1.2131830529547096 16.316515294047917 0 0 0
654 218 1 0.5897 4.207371122685514 1.1058834439559562 16.709893179358797 0 0 0
38 13 1 0.5897 9.281759745458922 2.523508991324489 20.526491549317388 0 0 -1
706 236 2 -1.1794 9.159015097938394 1.4950486068677828 19.012683453449938 0 0 0
679 227 2 -1.1794 1.083057596906816 1.915369027795278 15.5293011263854 0 0 0
676 226 2 -1.1794 6.295688768249167 1.2039069778336342 18.78963496092688 0 0 0
694 232 2 -1.1794 7.6757287664763165 4.341655119811929 17.610725187202156 0 0 0
660 220 1 0.5897 0.9044322655704427 4.348311123559988 16.916671842997697 0 0 0
695 232 1 0.5897 7.662026928081923 3.525284910591491 17.111140281140404 0 0 0
708 236 1 0.5897 8.211075907967848 1.6206851473262631 18.96930796112345 0 0 0
657 219 1 0.5897 6.514126769962627 4.856936035369407 18.843040727841444 0 0 0
715 239 2 -1.1794 7.665350587893281 2.1218192628685797 16.038577806789068 0 0 0
696 232 1 0.5897 7.67255848157316 5.030030863420621 16.94559791065759 0 0 0
707 236 1 0.5897 9.26822178113339 0.580260667206494 19.27236609654733 0 0 0
678 226 1 0.5897 6.127640405697999 0.30357062628309733 19.067643559151502 0 0 0
659 220 1 0.5897 0.624474553565926 4.035792658491647 18.371375890256505 0 0 0
885 295 1 0.5897 0.7910270352949083 0.220788042041581 16.115509023345595 0 1 0
717 239 1 0.5897 6.825629602438444 2.127442183867678 15.579077840187097 0 0 0
1 1 2 -1.1794 2.702798694326649 2.5656489352503704 20.551267642794336 0 0 -1
3 1 1 0.5897 3.6441668915330427 2.7121803430710276 20.64417908928609 0 0 -1
138 46 1 0.5897 6.641754839245733 7.506505360850341 4.919989485915073 0 0 0
674 225 1 0.5897 1.1138222138652225 5.4807476017058585 0.6001315543626382 0 0 1
13 5 2 -1.1794 4.253404529569293 5.668279902854239 1.7168264023423128 0 0 0
139 47 2 -1.1794 0.5508556542628157 8.61351270847685 1.9599045201420255 0 0 0
140 47 1 0.5897 0.5960818172825466 9.284951531218546 2.6406157290605075 0 0 0
56 19 1 0.5897 5.912074619824561 5.890733938826553 1.5315895781457052 0 0 0
57 19 1 0.5897 7.063956585017383 5.440441660369575 2.4047711497352933 0 0 0
113 38 1 0.5897 3.1380775642375625 7.789520210031276 4.01792969702384 0 0 0
15 5 1 0.5897 3.780867489904682 6.371633369306512 2.1620510135589397 0 0 0
112 38 2 -1.1794 3.7204233485202365 7.956926533748423 3.2768645016486415 0 0 0
109 37 2 -1.1794 2.5998018525547106 9.0184090851354 0.29228205437731736 0 0 0
149 50 1 0.5897 9.560739224611659 8.012947345159322 3.8890313223102324 0 0 0
114 38 1 0.5897 4.57287781586778 7.628294575503461 3.562517807050031 0 0 0
111 37 1 0.5897 2.0883137398988736 8.911733678294764 1.0943579223978028 0 0 0
144 48 1 0.5897 5.915809931059561 9.315354431892164 1.1855599836574557 0 0 0
175 59 2 -1.1794 7.1379765710592835 8.801263951060228 2.2333526363206193 0 0 0
126 42 1 0.5897 3.716870802717414 9.728828754688694 3.1438892916398555 0 0 0
177 59 1 0.5897 7.764999607928337 8.821667266925285 1.5103620437080763 0 0 0
110 37 1 0.5897 3.5112361385732154 8.991612679236749 0.5835572454403417 0 0 0
55 19 2 -1.1794 6.821694383573174 6.094498762906711 1.7491976922057937 0 0 0
176 59 1 0.5897 6.9101871406415425 7.876381446412128 2.3274251141458384 0 0 0
142 48 2 -1.1794 5.371298388106409 9.434475625812913 0.4073249972173335 0 0 0
141 47 1 0.5897 0.24342722233297878 7.830012931978812 2.415795677920486 0 0 0
14 5 1 0.5897 3.6845224577051003 5.420956783766267 0.9877711445366203 0 0 0
166 56 2 -1.1794 8.401835359270862 7.6793386681457045 5.147973556251141 0 0 0
711 237 1 0.5897 8.243208304626917 5.798150621210272 0.43486388973897144 0 0 1
20 7 1 0.5897 0.16237242826168302 5.103361305874089 2.588974869095385 0 0 0
136 46 2 -1.1794 5.699851512277495 7.380790434918469 5.035286537473983 0 0 0
145 49 2 -1.1794 9.294320770612936 9.391106705297307 0.27730789749773077 0 0 0
19 7 2 -1.1794 0.0378178668108049 5.77403776525197 1.9174549092627053 0 0 0
673 225 2 -1.1794 1.8285552866709454 5.135268069352424 0.0652652078174043 0 0 1
379 127 2 -1.1794 7.597006307198265 6.16254830566276 8.571742087607994 0 0 0
500 167 1 0.5897 7.733292008890873 9.431785511862527 9.820910901897907 0 0 0
463 155 2 -1.1794 0.5340421498278856 8.37778561872961 9.082090569236321 0 0 0
343 115 2 -1.1794 0.6627720000660793 5.736428558158271 8.652959297198755 0 0 0
168 56 1 0.5897 8.68218349418471 8.242812285397644 5.86922162288565 0 0 0
339 113 1 0.5897 4.737748177928496 5.4911379904111755 7.269893553842548 0 0 0
437 146 1 0.5897 4.463488198633269 7.397179865648309 9.427065460748283 0 0 0
464 155 1 0.5897 1.2892684571850515 8.625710081293017 8.548736946438076 0 0 0
380 127 1 0.5897 7.729909422496703 7.067537416811948 8.853733324165644 0 0 0
344 115 1 0.5897 0.6538271858963843 5.198481580530059 9.44467894327336 0 0 0
62 21 1 0.5897 8.55453378384062 5.511650715522513 7.214055104128204 0 0 0
435 145 1 0.5897 2.457757608766428 8.724902656490398 6.885426458801927 0 0 0
25 9 2 -1.1794 2.2943172862207537 5.161610381839034 6.469597623407273 0 0 0
26 9 1 0.5897 1.6765062072134862 5.29586975927206 7.188344598401939 0 0 0
338 113 1 0.5897 5.854870721296176 6.114172289058371 8.079759137073191 0 0 0
469 157 2 -1.1794 9.376525263356204 9.341791256322603 7.291236000116672 0 0 0
466 156 2 -1.1794 5.4519143003353046 9.05379852429079 7.263888488159163 0 0 0
433 145 2 -1.1794 2.593156064234199 9.26619943747055 7.663219751825648 0 0 0
467 156 1 0.5897 5.452751389613588 8.352543576817395 6.612355356247598 0 0 0
337 113 2 -1.1794 4.92270725762198 5.899616610876013 8.115600159652454 0 0 0
468 156 1 0.5897 4.525076117074119 9.224676018292545 7.4313544095753 0 0 0
131 44 1 0.5897 2.345017030487518 6.88267184963589 5.706398291351163 0 0 0
130 44 2 -1.1794 2.026710705954496 7.691460777421178 5.305441893581043 0 0 0
499 167 2 -1.1794 7.534909368282622 8.771577893932049 9.156801665884224 0 0 0
345 115 1 0.5897 0.7623413901428653 6.632946341029606 8.973175815454535 0 0 0
470 157 1 0.5897 8.825673873276878 8.954019774428218 7.971294492238765 0 0 0
501 167 1 0.5897 6.661820113434864 9.003990206799145 8.840591334302964 0 0 0
137 46 1 0.5897 5.610017189340677 6.463545143373629 5.293706365127784 0 0 0
438 146 1 0.5897 4.135037924327508 8.716000781244496 10.093921268872133 0 0 0
61 21 2 -1.1794 9.277428269206556 5.399637944698474 6.596651157831364 0 0 0
132 44 1 0.5897 1.074387332401171 7.641928976151228 5.38859177647858 0 0 0
381 127 1 0.5897 7.537205120788414 5.663662249612166 9.386495836686587 0 0 0
436 146 2 -1.1794 4.135132422633719 7.770816327435545 10.244930207889137 0 0 0
167 56 1 0.5897 8.727964806947364 6.810310151384085 5.381713653605445 0 0 0
758 253 1 0.5897 2.6862072922617135 8.176072237133948 13.360890291855737 0 0 0
789 263 1 0.5897 1.3964001616577995 8.390246667431757 15.418459535282159 0 0 0
533 178 1 0.5897 0.39976189537717427 7.523766417371305 11.853844616359849 1 0 0
385 129 2 -1.1794 8.861786372651196 5.294347253233725 13.534470616130726 0 0 0
491 164 1 0.5897 9.589430168730265 7.680038061346992 11.134495090222462 0 0 0
792 264 1 0.5897 4.513233793615514 9.279436839780539 14.541688793772217 0 0 0
791 264 1 0.5897 5.953228189878129 9.292873369665557 15.008857646390469 0 0 0
794 265 1 0.5897 9.619515640723 8.476509645073216 13.179367442877421 0 0 0
455 152 1 0.5897 2.7865032733904367 7.132309161329412 11.161632219518198 0 0 0
454 152 2 -1.1794 2.17126673125681 6.957892000093808 11.87391972009442 0 0 0
456 152 1 0.5897 2.482229481687395 6.141567428773578 12.265205419000807 0 0 0
350 117 1 0.5897 3.2828904180021987 5.354531435618846 14.174668350711405 0 0 0
490 164 2 -1.1794 9.068390910821085 7.451948549214805 11.90443490462701 0 0 0
492 164 1 0.5897 8.161754428272086 7.485749095541219 11.599230545344215 0 0 0
462 154 1 0.5897 5.165556115590322 7.840789707197985 11.677338122365288 0 0 0
757 253 2 -1.1794 2.7587634901616545 8.711250209608409 14.15120499421026 0 0 0
790 264 2 -1.1794 5.399490334777653 9.502058091267982 14.256608183082966 0 0 0
793 265 2 -1.1794 9.743288146542122 9.01592603500236 13.960383520370083 0 0 0
461 154 1 0.5897 5.931653899292488 8.277622394460272 12.907936341525447 0 0 0
460 154 2 -1.1794 5.927116778515907 7.6191468180634825 12.213213836332288 0 0 0
387 129 1 0.5897 8.881871561832604 5.9771003086299 12.863876162817732 0 0 0
704 235 1 0.5897 6.518808877145888 6.22142398060503 15.445743004818688 0 0 0
333 111 1 0.5897 5.833506876165314 5.930461736122751 12.639457661500447 0 0 0
759 253 1 0.5897 2.667292962871825 9.61190267165808 13.840302036635872 0 0 0
668 223 1 0.5897 1.1107258181209063 5.251912190061923 14.824876130429011 0 0 0
705 235 1 0.5897 7.986453679319114 6.2307790949015605 15.074470616686328 0 0 0
661 221 2 -1.1794 4.558848287348956 6.213281725727957 15.382207814283031 0 0 0
795 265 1 0.5897 9.452433841034766 9.88910964774396 13.697448962860646 0 0 0
824 275 1 0.5897 8.460821653285452 9.1027850722549 15.167292694038425 0 0 0
667 223 2 -1.1794 0.388252128481409 5.415991577026671 15.430996022832995 0 0 0
762 254 1 0.5897 4.901376318824667 8.188429245802341 17.789259604989557 0 0 0
143 48 1 0.5897 5.738769568452919 8.830045189886347 20.396183164962878 0 0 -1
761 254 1 0.5897 3.918776480010415 9.167654869017985 17.183001396284805 0 0 0
663 221 1 0.5897 4.349400570735753 7.083688894122406 15.720904824906677 0 0 0
760 254 2 -1.1794 4.123079913966113 8.233919001811717 17.23384823003654 0 0 0
814 272 2 -1.1794 9.24710682918408 7.787194501977737 18.857975595813006 0 0 0
779 260 1 0.5897 2.8957176878133817 7.411810083433742 18.33364306832534 0 0 0
780 260 1 0.5897 2.1085955055559755 7.697769578359471 19.59492430257757 0 0 0
778 260 2 -1.1794 2.1718957853614014 7.081037151392851 18.86559247071744 0 0 0
655 219 2 -1.1794 5.8170513768410785 5.219873490509475 19.389532873952223 0 0 0
709 237 2 -1.1794 9.044935878562764 5.5793093968384 20.593604487210285 0 0 0
823 275 2 -1.1794 7.757754566100106 9.142062469763529 15.815734327295633 0 0 0
788 263 1 0.5897 0.7240589632963297 8.85393663139641 16.693240135794472 0 0 0
816 272 1 0.5897 9.337269650615704 8.53853382483232 19.444155094477907 0 0 0
662 221 1 0.5897 4.333579833832684 5.617283496556351 16.096557223445522 0 0 0
815 272 1 0.5897 9.36564746286107 7.025073724081463 19.424851592137678 0 0 0
675 225 1 0.5897 1.8099231274013485 5.665307746626384 19.902159279255983 0 0 0
785 262 1 0.5897 5.967479778726492 6.856864405281456 19.148028010895263 0 0 0
786 262 1 0.5897 7.192883721695666 7.731982510289122 18.991519648751375 0 0 0
787 263 2 -1.1794 0.6726441159249571 8.185093927831046 16.010399037914617 0 0 0
784 262 2 -1.1794 6.236124447713849 7.761632662822421 18.988583546407046 0 0 0
669 223 1 0.5897 0.47114370202957195 6.342137441350237 15.658104313078994 0 0 0
825 275 1 0.5897 7.603028701313327 8.228995923074054 16.057602154362836 0 0 0
703 235 2 -1.1794 7.390721855252567 6.374752178212069 15.809749255419673 0 0 0
858 286 1 0.5897 0.23942480870481778 7.472412198155324 18.73666015748075 1 0 0
656 219 1 0.5897 5.043421241597648 5.215720945880132 18.825824834715867 0 0 0
120 40 1 0.5897 0.6783183911040896 11.373564066884573 3.1065390848281993 0 0 0
124 42 2 -1.1794 3.692347847362543 10.668069597222525 3.3266765058605117 0 0 0
275 92 1 0.5897 8.743298824719835 14.011928797485206 4.058921247828801 0 0 0
122 41 1 0.5897 3.792275666815483 12.733491297049602 0.8975991747276914 0 0 0
118 40 2 -1.1794 0.9625582422517441 10.672799134789697 3.693370027862434 0 0 0
783 261 1 0.5897 1.6069529476957007 12.032665979732512 0.2835708377409293 0 0 1
220 74 2 -1.1794 5.271095198587444 14.754133543248841 3.2838802263506963 0 0 0
819 273 1 0.5897 8.36152087684568 12.279258810386763 0.39402091163664155 0 0 1
123 41 1 0.5897 4.249799318698898 11.795679658939084 1.9944695602096874 0 0 0
121 41 2 -1.1794 4.392392145131337 12.673665276910459 1.6409749021414717 0 0 0
154 52 2 -1.1794 8.098313678266587 10.895458957493364 3.967258512279317 0 0 0
245 82 1 0.5897 5.654513927007318 14.174424933072267 4.916223047013988 0 0 0
285 95 1 0.5897 7.677974717749203 14.021928509935563 2.170008089650156 0 0 0
125 42 1 0.5897 4.187045942912847 10.767285406337122 4.140142670732038 0 0 0
129 43 1 0.5897 0.5721799197757561 13.445251455771176 1.972570957281605 0 0 0
119 40 1 0.5897 1.9180711710013434 10.729818307294918 3.6901190318620825 0 0 0
127 43 2 -1.1794 0.33393005267011355 12.566990850765949 1.6757635609906938 0 0 0
240 80 1 0.5897 2.4607490449201115 13.899299314336433 3.6409504267956176 0 0 0
156 52 1 0.5897 9.01579464865134 10.831383866565485 4.2325748876757086 0 0 0
164 55 1 0.5897 7.378500559132292 11.717555385308811 2.377329339638341 0 0 0
165 55 1 0.5897 6.171940734178405 12.409134917687915 1.7790934071232922 0 0 0
163 55 2 -1.1794 7.120989961686338 12.32673845338867 1.6853353059582838 0 0 0
222 74 1 0.5897 4.782165273065663 14.107759489345925 2.774557514502788 0 0 0
283 95 2 -1.1794 8.134153089030564 14.853073392502484 2.3011439574330708 0 0 0
238 80 2 -1.1794 2.3303735142195428 14.0047055213568 4.583416838637344 0 0 0
317 106 1 0.5897 0.5938598069097569 14.235913782609437 5.161203839470051 1 0 0
239 80 1 0.5897 2.402568719938759 13.117936775645369 4.936401894174227 0 0 0
155 52 1 0.5897 7.941067050575385 10.103147465626543 3.453695580359123 0 0 0
274 92 2 -1.1794 8.819529515786794 14.031281087040878 5.012954631542301 0 0 0
116 39 1 0.5897 6.326535080794133 10.915853837594929 4.926900647647502 0 0 0
146 49 1 0.5897 9.327440407972057 10.347489471963364 0.2578993623047978 0 0 0
133 45 2 -1.1794 2.535254889011168 11.802463949468683 6.427191429669616 0 0 0
134 45 1 0.5897 1.819966556784422 12.110298236640348 6.983879350698867 0 0 0
135 45 1 0.5897 3.327186540004978 12.141251190245425 6.84475071879259 0 0 0
447 149 1 0.5897 5.635013661066928 12.488682842677791 8.950282407485805 0 0 0
544 182 2 -1.1794 3.9105491459467996 14.783973102149405 9.919398470075754 0 0 0
246 82 1 0.5897 5.804068436334396 13.056260825269224 5.925821313834235 0 0 0
446 149 1 0.5897 4.371460583711288 13.3225691999216 8.954830768024333 0 0 0
169 57 2 -1.1794 8.753399543657553 12.112864771087626 6.875139868331092 0 0 0
171 57 1 0.5897 8.544934565887422 11.20918468563319 6.638334138559024 0 0 0
445 149 2 -1.1794 4.748779046715332 12.522074882694797 8.590047898538307 0 0 0
573 191 1 0.5897 0.8029734671005173 14.235665560052729 8.997847583481624 0 0 0
453 151 1 0.5897 0.6435103669799555 12.002111094121867 8.936586384868349 0 0 0
170 57 1 0.5897 8.753010602132768 12.585233852043427 6.042581918528309 0 0 0
117 39 1 0.5897 5.500543431500516 10.42183136915358 6.095564331264744 0 0 0
450 150 1 0.5897 4.377084396974453 11.265075455294415 9.792579198412902 0 0 0
115 39 2 -1.1794 5.563385800281092 11.13589090468372 5.4611877351355105 0 0 0
489 163 1 0.5897 7.269477070819995 13.750052713482985 9.124916577923864 0 0 0
488 163 1 0.5897 7.7159040966241195 12.583211313732066 8.2698839256625 0 0 0
487 163 2 -1.1794 7.390265487397602 12.800721092290232 9.143378269416912 0 0 0
451 151 2 -1.1794 0.48460609749631717 12.550264522625673 8.168130846141569 0 0 0
244 82 2 -1.1794 6.105231787993551 13.943123294446517 5.728431281181028 0 0 0
434 145 1 0.5897 2.343629056315017 10.14835333399257 7.388002362216742 0 0 0
443 148 1 0.5897 1.365095478058014 10.032934972074452 9.99899227990405 0 0 0
276 92 1 0.5897 7.9152190312526445 14.014542252485112 5.326378199318377 0 0 0
457 153 2 -1.1794 2.4899363191550714 11.380074611964785 13.598514898554825 0 0 0
458 153 1 0.5897 1.7460146585697127 11.618388532416155 14.151768736490723 0 0 0
459 153 1 0.5897 3.2395655385462994 11.816564848299997 14.003252369840162 0 0 0
563 188 1 0.5897 2.2088236051449313 13.021945560386849 12.34804144319119 0 0 0
569 190 1 0.5897 6.244101875438895 13.334098929201902 11.973431728826002 0 0 0
512 171 1 0.5897 0.06399728831434696 11.272131651395195 11.612644292408719 1 0 0
449 150 1 0.5897 4.870187404500076 10.746011390992022 11.12658567018818 0 0 0
562 188 2 -1.1794 2.008469453201365 13.921231721410868 12.088541325481762 0 0 0
441 147 1 0.5897 6.010862592837531 11.179406223839234 13.083467301782498 0 0 0
546 182 1 0.5897 4.7049624977156785 14.842084664837904 10.450252003291512 0 0 0
598 200 2 -1.1794 9.104866288823967 13.80255675870644 11.930410167419515 0 0 0
442 148 2 -1.1794 1.363458820147692 10.861614449768222 10.478058977536282 0 0 0
478 160 2 -1.1794 8.526252568740924 10.754034801686167 10.907917659622187 0 0 0
439 147 2 -1.1794 6.184692989893403 11.621541300555378 12.252429488914458 0 0 0
600 200 1 0.5897 9.109825308674678 14.559636581950937 12.51608111522163 0 0 0
444 148 1 0.5897 2.262299750022588 10.958814003733826 10.792556509914787 0 0 0
493 165 2 -1.1794 9.132664059232086 11.72369828190052 13.862531927352904 0 0 0
568 190 2 -1.1794 6.391675238155331 14.255148751419709 11.758869718306851 0 0 0
641 214 1 0.5897 0.2616051130500724 14.259636033274331 11.948394095339308 1 0 0
494 165 1 0.5897 8.45491970304649 12.02079137476588 14.469744066132675 0 0 0
599 200 1 0.5897 9.125932096539284 13.045891471860513 12.516254332129906 0 0 0
440 147 1 0.5897 7.103087812274799 11.427586800733307 12.064865898518283 0 0 0
570 190 1 0.5897 7.304157539495984 14.291567479549322 11.472000737546187 0 0 0
495 165 1 0.5897 9.947682585198542 12.0731992814581 14.22289158589744 0 0 0
769 257 2 -1.1794 4.466312530549137 12.565989714579821 15.203420279799678 0 0 0
770 257 1 0.5897 5.3737940002185995 12.410422922628166 15.465222328234672 0 0 0
479 160 1 0.5897 9.462183700092387 10.880782559793856 11.063419424248076 0 0 0
564 188 1 0.5897 2.312532947655128 14.455974030976924 12.82193485770028 0 0 0
448 150 2 -1.1794 4.131874697384867 10.692799423142826 10.519649215251787 0 0 0
545 182 1 0.5897 3.24620233556716 14.4429232252432 10.518234952744276 0 0 0
480 160 1 0.5897 8.272490675072408 11.493164679882012 10.355175167509087 0 0 0
888 296 1 0.5897 2.4189428492361427 13.46612998876142 19.209870319118075 0 0 0
768 256 1 0.5897 0.8707483866970628 11.048363529535834 16.82562019939472 0 0 0
773 258 1 0.5897 2.8367523927680063 10.784633952252328 17.604249291262608 0 0 0
767 256 1 0.5897 0.3854902268308447 10.586875265040876 18.183454713082185 0 0 0
886 296 2 -1.1794 2.374465089691764 14.341982247708989 18.82633679186083 0 0 0
812 271 1 0.5897 7.518252069133513 13.36156547704129 15.726918012997285 0 0 0
763 255 2 -1.1794 5.497104036132692 11.701612601990677 19.16697657156551 0 0 0
774 258 1 0.5897 3.7497303644823283 11.2829007060573 16.504110960422814 0 0 0
813 271 1 0.5897 7.281121433921608 12.154152507923655 16.60883111252253 0 0 0
965 322 1 0.5897 0.31844798100949356 14.308858897216998 18.651553268059487 1 0 0
775 259 2 -1.1794 0.5684000966735132 12.393157791037137 15.519175404619329 0 0 0
869 290 1 0.5897 3.6783140531662433 14.526019752745782 17.52074579671019 0 0 0
764 255 1 0.5897 5.431112936755041 11.078275905094838 19.89042842551273 0 0 0
868 290 2 -1.1794 4.3507709107145365 14.766776037297134 16.88345069161205 0 0 0
893 298 1 0.5897 7.235527988831474 14.344740020973259 18.507350702944265 0 0 0
923 308 1 0.5897 9.305775985445486 14.598875395177219 19.36866126419376 0 0 0
894 298 1 0.5897 6.0523938417273 13.488706589159516 18.90652721494932 0 0 0
803 268 1 0.5897 7.093299116918039 10.849837199041687 18.488408468318106 0 0 0
765 255 1 0.5897 4.720991417504032 11.53244359401025 18.632820050876543 0 0 0
810 270 1 0.5897 9.55915605800875 10.61070643108562 17.360950688738235 0 0 0
818 273 1 0.5897 9.251576701909872 12.450348189518433 19.815080293397983 0 0 0
922 308 2 -1.1794 9.13952167191718 13.97317647206441 18.663584684117488 0 0 0
892 298 2 -1.1794 6.31259320876164 14.397413640647795 18.755759284196106 0 0 0
802 268 2 -1.1794 7.879154433882296 10.7996331191279 17.944150831051605 0 0 0
817 273 2 -1.1794 9.207636829368802 12.015021777953278 20.66646046673463 0 0 0
772 258 2 -1.1794 3.746855024032457 10.763735396941904 17.30832948930012 0 0 0
870 290 1 0.5897 5.17837600464006 14.63004893684951 17.344610850760965 0 0 0
766 256 2 -1.1794 1.0210311233595288 10.383081108627477 17.497250229016625 0 0 0
781 261 2 -1.1794 2.4198832025957286 11.868499226176798 20.43935104226978 0 0 0
771 257 1 0.5897 4.247296604766921 13.414196846265705 15.589149936898187 0 0 0
924 308 1 0.5897 9.830156466344992 14.144087712427059 18.023177835193202 0 0 0
811 271 2 -1.1794 7.263909277818171 12.439352942073521 15.69522233027372 0 0 0
782 261 1 0.5897 2.5750555627980356 10.929924900841588 20.54507158836088 0 0 0
777 259 1 0.5897 0.7552082478107213 13.315223151764704 15.695303702083624 0 0 0
804 268 1 0.5897 7.716696960664531 10.062566872440986 17.35545130270811 0 0 0
887 296 1 0.5897 2.7669279843933383 14.913238098146861 19.48658561936609 0 0 0
254 85 1 0.5897 9.147251775421903 15.571655497388623 0.587544612124721 0 0 0
273 91 1 0.5897 7.341222721908807 19.86161656427243 1.5133855395349023 0 0 0
264 88 1 0.5897 8.280527072984235 17.19661884875751 3.4918854136753894 0 0 0
263 88 1 0.5897 7.126445270784657 17.556559121087588 4.403266864216002 0 0 0
229 77 2 -1.1794 4.519158993978882 18.966608392084687 1.6292596941428465 0 0 0
234 78 1 0.5897 3.970603931741795 17.77080080766155 2.9630981418906623 0 0 0
231 77 1 0.5897 5.470273289165342 19.049683151236913 1.5602280827602957 0 0 0
233 78 1 0.5897 2.860384659519827 17.0574771842764 3.705118068714357 0 0 0
227 76 1 0.5897 1.018598230429816 17.610522322643114 3.0782045685241277 0 0 0
226 76 2 -1.1794 1.1502155808209709 17.0521355167134 3.8444833490408485 0 0 0
232 78 2 -1.1794 3.8136751819262944 17.104712186603955 3.632405163699144 0 0 0
224 75 1 0.5897 4.847725293705985 17.70310342179677 5.095665709673444 0 0 0
272 91 1 0.5897 7.313928011709241 18.45977575146364 2.0842833340961997 0 0 0