LAMMPS data file via write_data, version 30 Jul 2021, timestep = 2000000

1920 atoms
2 atom types
1280 bonds
1 bond types
640 angles
1 angle types

0.07224860701719749 24.657752392980537 xlo xhi
0.006631702124066052 24.723369297875443 ylo yhi
0.020239273259555546 22.789760726739942 zlo zhi

Masses

1 1.008
2 15.999

Pair Coeffs # lj/cut/tip4p/long/omp

1 0 0
2 0.21084 3.1668

Bond Coeffs # harmonic/omp

1 450 0.9572

Angle Coeffs # harmonic/omp

1 55 104.52

Atoms # full

1 1 2 -1.1794 4.552297465430136 1.4276183831062081 4.308959621033235 0 0 0
2 1 1 0.5897 4.665414419683504 2.1502141406190636 4.926472667052643 0 0 0
3 1 1 0.5897 5.307545995687656 1.4910879793901286 3.7243576401110223 0 0 0
4 2 2 -1.1794 2.8634479377582864 1.5117062113486386 2.0529689065290837 0 0 0
5 2 1 0.5897 3.199070674375188 1.54265786975402 2.948844904745611 0 0 0
6 2 1 0.5897 1.9116272213186054 1.501264540287402 2.1535129433711178 0 0 0
9 3 1 0.5897 5.171945584776748 4.514857075567737 3.5549996637027785 0 0 0
10 4 2 -1.1794 3.353103065871043 4.613786895743223 3.630850553426014 0 0 0
11 4 1 0.5897 2.8775844218732605 5.3354025269564795 4.042444380021466 0 0 0
12 4 1 0.5897 2.8880720643805726 4.457829005052049 2.80889002933654 0 0 0
13 5 2 -1.1794 1.4932973472649202 2.9262006945140238 4.935204905535992 0 0 0
14 5 1 0.5897 2.2794393691610044 3.2694144679205586 4.510486282987499 0 0 0
15 5 1 0.5897 1.6217957882259044 1.977702150233163 4.947513722657914 0 0 0
19 7 2 -1.1794 4.600244601090571 3.321946253093273 0.7065486795716743 0 0 0
20 7 1 0.5897 3.824232514692503 2.8847491471491216 1.057081087696115 0 0 0
21 7 1 0.5897 5.326753590669433 2.9702625275724777 1.2210456035718515 0 0 0
22 8 2 -1.1794 1.5691076502111945 4.4849138228556535 1.482626126798974 0 0 0
23 8 1 0.5897 0.8347185904164297 4.547026609763851 2.0933658120442935 0 0 0
24 8 1 0.5897 1.4348346245672152 5.209228679771172 0.8713969609112443 0 0 0
27 9 1 0.5897 4.545471906636592 5.12105891666297 0.5658698528825098 0 0 0
7 3 2 -1.1794 6.128226313247967 4.554167200751959 3.5677469209139407 0 0 0
98 33 1 0.5897 0.2730847245408534 5.419792424275247 4.017792943868541 1 0 0
28 10 2 -1.1794 1.8340378154577894 0.09093305092826721 4.975114775750576 0 0 0
25 9 2 -1.1794 4.493712507308232 6.076889948393185 0.5702519058427012 0 0 0
387 129 1 0.5897 3.9248637589687982 0.27850322493325225 1.221495115226433 0 1 0
16 6 2 -1.1794 0.16181227329535636 1.3995935323098547 2.0503514986210742 0 0 0
47 16 1 0.5897 5.957381427874563 0.870967609730023 1.789998477258953 0 0 0
99 33 1 0.5897 0.15248073866334672 3.9110060058684035 4.051096555546879 1 0 0
150 50 1 0.5897 1.6964258805081498 6.1055722952803855 5.653482005928847 0 0 0
1455 485 1 0.5897 1.6052181821733873 3.3387846870687437 0.11586316194675858 0 0 1
386 129 1 0.5897 4.829287333155203 0.48749210761861533 0.02561025254970062 0 1 0
867 289 1 0.5897 4.554912938860581 0.128838672168821 5.7309609988326855 0 1 0
526 176 2 -1.1794 6.193627606427326 1.5368240367101416 7.844922560498341 0 0 0
503 168 1 0.5897 1.047855891679931 4.852455029546917 7.638898198842117 0 0 0
498 166 1 0.5897 1.2247525950517042 1.7081901433008067 7.9405057390809235 0 0 0
578 193 1 0.5897 0.42926418414430895 3.970833521586241 9.726074768639988 1 0 0
504 168 1 0.5897 1.6368512048389514 4.028711146361476 6.513546575893376 0 0 0
486 162 1 0.5897 3.3178505992242813 1.0351844188404165 7.397480504225502 0 0 0
501 167 1 0.5897 4.745631198668204 4.273399687451418 6.374419252610068 0 0 0
494 165 1 0.5897 1.6339238945275385 1.9886183652382403 10.591069812917548 0 0 0
493 165 2 -1.1794 1.6067298931568132 2.943716140312788 10.533110767670992 0 0 0
629 210 1 0.5897 2.236275001648201 6.090562368118662 10.254436697512322 0 0 0
487 163 2 -1.1794 5.9951615744714735 4.737239972006735 9.192839828085717 0 0 0
482 161 1 0.5897 5.355218057237404 1.690024131768975 9.544698217783777 0 0 0
508 170 2 -1.1794 1.4894152105115506 0.1482309345418578 10.596456555030112 0 0 0
496 166 2 -1.1794 0.2692044562804405 1.7636050728046453 7.934320692438928 0 0 0
492 164 1 0.5897 2.819998192368191 4.10953550002015 9.739746136912247 0 0 0
499 167 2 -1.1794 4.684167483479107 3.320264068758504 6.310650225574958 0 0 0
484 162 2 -1.1794 2.961900653647318 1.8157886222715551 7.822011459441335 0 0 0
527 176 1 0.5897 5.737289489912695 0.7746507196764111 7.488390050333362 0 0 0
483 161 1 0.5897 4.741049339450998 2.32473947720038 10.774245849069523 0 0 0
485 162 1 0.5897 3.358275833756935 1.8169729573964941 8.693264083446582 0 0 0
500 167 1 0.5897 4.024758739958518 3.078254369440988 6.960887132075934 0 0 0
528 176 1 0.5897 5.831006920686129 2.2805551043561616 7.36363999391148 0 0 0
481 161 2 -1.1794 4.5879312081915 1.6474870533387749 10.115354407692255 0 0 0
489 163 1 0.5897 5.047621362489624 4.788428456321638 9.318247149079378 0 0 0
490 164 2 -1.1794 3.252313437122331 4.846376119076118 9.30797139898186 0 0 0
505 169 2 -1.1794 4.773504238749174 6.057431994790079 6.495452895980827 0 0 0
491 164 1 0.5897 2.825946416805639 4.907393957671743 8.453172214551703 0 0 0
502 168 2 -1.1794 1.7769500471936637 4.829337630030903 7.019161353566713 0 0 0
579 193 1 0.5897 0.40739618954492246 5.4836161401447 9.670351330372155 1 0 0
961 321 2 -1.1794 4.485398178964147 1.6986711310079925 15.656610499849549 0 0 0
962 321 1 0.5897 5.246881993140862 1.5509882985971946 15.095789369545699 0 0 0
963 321 1 0.5897 4.505553797341002 0.9759021150108866 16.283874446023347 0 0 0
964 322 2 -1.1794 3.046731465371046 1.55461489667558 13.353913817903772 0 0 0
965 322 1 0.5897 3.4040027539683773 1.680356705660542 14.232972706062197 0 0 0
966 322 1 0.5897 2.0981921122612968 1.5358438889870856 13.48080414691694 0 0 0
970 324 2 -1.1794 3.29602195260331 4.727542380768595 14.941296332630012 0 0 0
971 324 1 0.5897 4.251330784955976 4.703634503512379 14.886589371002232 0 0 0
972 324 1 0.5897 3.066121806930023 3.9578264463774757 15.461826874524942 0 0 0
973 325 2 -1.1794 1.6755753584997763 2.844024664232926 16.38675236692525 0 0 0
975 325 1 0.5897 0.955229466725004 3.3186815018377516 15.972001221619944 0 0 0
979 327 2 -1.1794 4.655871722833694 3.4154279286648723 12.281143332849531 0 0 0
980 327 1 0.5897 3.908001699737855 2.922359352944107 12.61847153960771 0 0 0
981 327 1 0.5897 5.4131934682079 3.0395812132462305 12.729926832167605 0 0 0
982 328 2 -1.1794 1.5395629907846713 4.472355335584167 12.868729515432221 0 0 0
983 328 1 0.5897 1.575243937392705 5.211662949452182 12.261755502370683 0 0 0
984 328 1 0.5897 2.212186391201275 4.665391222153564 13.521805885477361 0 0 0
987 329 1 0.5897 4.534557185325253 5.115495730026338 12.314334064177654 0 0 0
990 330 1 0.5897 1.5734057868699116 1.0734851474671923 16.420419527573866 0 0 0
967 323 2 -1.1794 6.016261791248309 4.721998015101151 15.04734983159018 0 0 0
1346 449 1 0.5897 4.166495331130135 0.2814094910239015 12.832933299412922 0 1 0
1109 370 1 0.5897 0.8066351145197618 5.9304672775574065 16.273012988322265 0 0 0
988 330 2 -1.1794 1.6590982673620422 0.13778870657288061 16.23755538901295 0 0 0
1110 370 1 0.5897 2.3055567382347535 5.984839431663005 16.06795733998607 0 0 0
1008 336 1 0.5897 6.092773074116781 0.8706009847928904 13.170653573089021 0 0 0
985 329 2 -1.1794 4.663269284795106 6.056602846475696 12.19576447055438 0 0 0
976 326 2 -1.1794 0.307613630735971 1.476139375313937 13.484161902387386 0 0 0
1058 353 1 0.5897 0.1816330581253673 4.53285172762097 14.254492012130719 1 0 0
1347 449 1 0.5897 4.76821438900207 0.2588907173275538 11.443966797852804 0 1 0
495 165 1 0.5897 1.5417852896418438 3.237551556677386 11.441764381003662 0 0 0
1460 487 1 0.5897 4.620662027422152 2.8217630921680255 17.12765372342853 0 0 0
1446 482 1 0.5897 3.3558805028726715 2.110590973711049 18.990438203617597 0 0 0
974 325 1 0.5897 1.7848609557954267 3.269220108908438 17.237331459610136 0 0 0
1444 482 2 -1.1794 3.0439615951095815 1.2961015334219577 19.384887909874056 0 0 0
1468 490 2 -1.1794 1.7318220415485783 0.1709653477463696 21.85775476903041 0 0 0
1453 485 2 -1.1794 1.7066997940821929 2.9402676662403726 22.021034341839346 0 0 0
1465 489 2 -1.1794 4.355628777351075 5.943022113861909 17.8817657773849 0 0 0
1462 488 2 -1.1794 1.757214445775328 4.415576170966176 18.55904226386271 0 0 0
1447 483 2 -1.1794 6.03434010513144 4.537089434125049 20.629523170818253 0 0 0
1442 481 1 0.5897 4.121759094828445 1.4642024540335412 20.79611397699585 0 0 0
1443 481 1 0.5897 4.689790379412871 2.301054827019543 21.922571166194505 0 0 0
1488 496 1 0.5897 5.948041384151719 0.8360745385564692 18.632727805269205 0 0 0
1451 484 1 0.5897 4.265995775905016 4.610191743049125 20.741335328114104 0 0 0
1539 513 1 0.5897 0.25254155641494513 5.305663357370902 21.118275525871766 1 0 0
1538 513 1 0.5897 0.39265673100066745 3.8037992939868315 20.988426454630073 1 0 0
1456 486 2 -1.1794 0.2576741234912602 1.326749047207113 19.17019228144194 0 0 0
1469 490 1 0.5897 1.7289708952633525 1.1226374884409624 21.960825815477577 0 0 0
1445 482 1 0.5897 2.0913770655991377 1.3384635178058262 19.301407448565666 0 0 0
1454 485 1 0.5897 2.3288560912545084 3.508206101695612 21.566504199997603 0 0 0
1463 488 1 0.5897 1.7243538497321214 5.177926939284377 17.98110640360783 0 0 0
1461 487 1 0.5897 5.458318073587869 2.7528555220564774 18.386771787354846 0 0 0
1441 481 2 -1.1794 4.87589541866092 1.533697095605068 21.381464684493615 0 0 0
1466 489 1 0.5897 4.569067180448861 5.0104159181299615 17.913371252083557 0 0 0
1826 609 1 0.5897 4.044588289025409 0.00966471521376141 18.320728124816277 0 1 0
1459 487 2 -1.1794 4.725425546780874 3.2236856014937683 17.990033926599704 0 0 0
1452 484 1 0.5897 3.02240532887466 4.657616389840514 19.879354405654485 0 0 0
1590 530 1 0.5897 2.1144089466026026 5.909075447957404 21.624059676267077 0 0 0
1487 496 1 0.5897 5.946086191942402 1.5128310513637169 19.986929916631066 0 0 0
1464 488 1 0.5897 1.0497831086035592 4.560143206539202 19.187400589205453 0 0 0
1450 484 2 -1.1794 3.3101736397634394 4.6187929231721325 20.791427429053314 0 0 0
121 41 2 -1.1794 4.632859456772755 7.653032258637608 4.193266747007184 0 0 0
122 41 1 0.5897 3.8550203964829404 7.662498837170679 3.635536649367223 0 0 0
123 41 1 0.5897 5.367779308962088 7.680067898844877 3.5806095930715682 0 0 0
124 42 2 -1.1794 2.8861303358927133 7.781142654769208 2.0842976758100273 0 0 0
125 42 1 0.5897 3.3359967561166592 7.035277800189179 1.6873422819091612 0 0 0
126 42 1 0.5897 3.249619538187898 8.545973995710028 1.6380068136061043 0 0 0
129 43 1 0.5897 5.04092859829347 10.916478515772418 3.7417721611235057 0 0 0
130 44 2 -1.1794 3.284515532098222 10.920428368041549 3.7171964729258624 0 0 0
131 44 1 0.5897 2.844289382185516 11.641873110815192 4.166614909002051 0 0 0
132 44 1 0.5897 2.825649585345896 10.135485045927213 4.0164906283883015 0 0 0
133 45 2 -1.1794 1.5617683678215863 9.13009687846123 4.978555702267041 0 0 0
135 45 1 0.5897 0.8935148315391293 9.595069231789964 4.475108437032223 0 0 0
137 46 1 0.5897 1.1703245447028396 7.7306489743209585 2.2543553419954176 0 0 0
139 47 2 -1.1794 4.661339438991685 9.63900134125734 0.8669076581810444 0 0 0
140 47 1 0.5897 4.6904410156545175 10.587774898674752 0.7432471259339861 0 0 0
142 48 2 -1.1794 1.6665215125864052 10.815212979402645 1.420244682536274 0 0 0
143 48 1 0.5897 2.4390878113062646 10.913598963009607 1.9767053213402042 0 0 0
144 48 1 0.5897 1.7331147128772155 11.531187171714377 0.7884163255870682 0 0 0
149 50 1 0.5897 1.6483602863130906 7.37379210923479 4.828064001680494 0 0 0
148 50 2 -1.1794 1.6968962167999149 6.420994380999324 4.74975777137914 0 0 0
127 43 2 -1.1794 5.989566452349755 10.789465127767649 3.730080843552835 0 0 0
270 90 1 0.5897 1.035615265410458 12.30047215238316 4.556017753359109 0 0 0
168 56 1 0.5897 5.964178354154409 8.414073117608844 1.5125288898127172 0 0 0
218 73 1 0.5897 0.3137951232160563 10.959578218540072 2.7341142453674587 1 0 0
26 9 1 0.5897 5.256388419758509 6.356224321225004 1.0767028240256078 0 0 0
136 46 2 -1.1794 0.21551420127184573 7.771902153317023 2.307427146991735 0 0 0
621 207 1 0.5897 4.548345760527723 8.959540772350175 5.649464632660185 0 0 0
507 169 1 0.5897 4.748753643525046 6.516245038268611 5.655749622219983 0 0 0
1574 525 1 0.5897 1.7095011077562707 9.499042531769184 0.12839147778979687 0 0 1
1101 367 1 0.5897 4.630940842388573 9.0075116480968 11.37702475914032 0 0 0
134 45 1 0.5897 1.6161580447852453 9.609451055649426 5.805289088875912 0 0 0
625 209 2 -1.1794 4.65729579776792 12.125409514662191 6.3734832267255435 0 0 0
626 209 1 0.5897 4.7015483046074475 11.169236122963774 6.3642510482918135 0 0 0
620 207 1 0.5897 5.245105148821989 8.997777317551193 6.99291610832855 0 0 0
615 205 1 0.5897 0.9193898397498913 9.481445292644388 10.280707506678063 0 0 0
648 216 1 0.5897 6.032552153562495 7.0817313067588294 7.423303161248013 0 0 0
604 202 2 -1.1794 2.917232324877731 7.593646781704805 7.860951651701807 0 0 0
698 233 1 0.5897 0.41316323646209446 11.46418975692789 9.809794205633676 1 0 0
624 208 1 0.5897 1.8078041385533872 11.535003511550464 6.633090259929414 0 0 0
628 210 2 -1.1794 1.53377736681529 6.373926611305125 10.839585606140083 0 0 0
622 208 2 -1.1794 1.6866989103307506 10.75655834238759 7.176807069384964 0 0 0
616 206 2 -1.1794 0.1748559354737505 7.73688584238539 7.887582179465146 0 0 0
606 202 1 0.5897 1.9612492821468515 7.640917704549066 7.854485085683667 0 0 0
603 201 1 0.5897 4.03310959435754 7.57689144653752 9.348836652651467 0 0 0
619 207 2 -1.1794 4.540867877544297 9.411045975208806 6.493448826193318 0 0 0
612 204 1 0.5897 3.0272205515070003 11.43066115665949 9.754966106386735 0 0 0
607 203 2 -1.1794 6.065765412442565 10.952076900407247 9.516684273722662 0 0 0
647 216 1 0.5897 5.980894825617929 7.77618077932074 8.767528365809516 0 0 0
506 169 1 0.5897 4.020566223434085 6.398953527514441 6.977789013037471 0 0 0
605 202 1 0.5897 3.1968276496314867 8.311047273514035 7.292247349754991 0 0 0
610 204 2 -1.1794 3.3955687299019 10.702096337893849 9.255192485308056 0 0 0
611 204 1 0.5897 4.342708769857745 10.796292801478534 9.356351786231256 0 0 0
602 201 1 0.5897 4.534002416429345 7.028778155156709 10.668124093608894 0 0 0
630 210 1 0.5897 1.4786759809648469 7.320434853415612 10.707696265547419 0 0 0
601 201 2 -1.1794 4.670673396988142 7.741209065578771 10.043606041527916 0 0 0
699 233 1 0.5897 0.3838848430977781 10.803656630709778 8.447919899328452 1 0 0
614 205 1 0.5897 2.4234997531362756 9.365066351428858 10.154689269906838 0 0 0
623 208 1 0.5897 2.4102525163479678 10.786098322353915 7.802734095460753 0 0 0
613 205 2 -1.1794 1.6799843258539864 9.047192784371719 10.666882360598576 0 0 0
1081 361 2 -1.1794 4.548983363392254 7.74637421404085 15.842766158488553 0 0 0
1082 361 1 0.5897 4.517208126954823 8.501701478596145 16.42991417632939 0 0 0
1083 361 1 0.5897 4.40033778400113 6.9923433715435 16.41339024900023 0 0 0
1084 362 2 -1.1794 2.9531941980540997 7.692851648144296 13.62549198641096 0 0 0
1085 362 1 0.5897 3.4713530422754046 7.638614239721333 14.428463022862015 0 0 0
1086 362 1 0.5897 3.3368318030997086 8.424002035158079 13.1412358528576 0 0 0
1089 363 1 0.5897 4.983742550858417 10.766925713651029 15.100249874395791 0 0 0
1090 364 2 -1.1794 3.126275700170777 10.831444776330533 15.135673944987204 0 0 0
1091 364 1 0.5897 2.7247279063835976 11.598125887046924 15.544611634731137 0 0 0
1092 364 1 0.5897 2.692404084828738 10.084507947259288 15.548109026081466 0 0 0
1093 365 2 -1.1794 1.4991421267285774 9.079013703988673 16.59436384675239 0 0 0
1094 365 1 0.5897 1.5234215435502985 8.122738451189225 16.55886046554721 0 0 0
1095 365 1 0.5897 0.7853387696131824 9.323007261054409 16.005170970515177 0 0 0
1097 366 1 0.5897 1.1108863350896678 7.747784929656794 13.537897350730999 0 0 0
1099 367 2 -1.1794 4.539705134217033 9.43321201805313 12.229477303621318 0 0 0
1100 367 1 0.5897 5.205914846142118 9.018315068578602 12.777413781325913 0 0 0
1102 368 2 -1.1794 1.711836536772809 10.861932082321454 12.770982501560564 0 0 0
1103 368 1 0.5897 1.8514089426558724 10.138722979686444 12.159630577575935 0 0 0
1104 368 1 0.5897 2.348852060162753 10.711999951369878 13.469499366076024 0 0 0
1107 369 1 0.5897 4.598359111945819 11.18045514655207 12.212962557883849 0 0 0
1087 363 2 -1.1794 5.931111320919179 10.645048886046126 15.162089205055084 0 0 0
1179 393 1 0.5897 0.3661536391377248 10.591707412113312 14.10764240544148 1 0 0
1127 376 1 0.5897 5.910071088085951 7.8147623076367285 14.38733184520364 0 0 0
1105 369 2 -1.1794 4.7727149138159914 12.105393636535647 12.387301003200381 0 0 0
1178 393 1 0.5897 0.3397437352342353 11.362221490380414 15.410522629868908 1 0 0
1128 376 1 0.5897 5.8734556054087825 7.163037851847479 13.021396870832794 0 0 0
1096 366 2 -1.1794 0.15835750564375567 7.769382260286293 13.44622721938907 0 0 0
986 329 1 0.5897 3.9214384969503557 6.459084287274819 12.647319059711794 0 0 0
1108 370 2 -1.1794 1.599891208155439 6.357373197421701 16.59659634199706 0 0 0
750 250 1 0.5897 1.6900721805823091 12.196322718878742 11.458674786970958 0 0 0
1230 410 1 0.5897 1.5065691437391138 12.182307672514845 17.228488162653278 0 0 0
1588 530 2 -1.1794 1.4012093970403872 6.310029990309401 22.120838093263544 0 0 0
1467 489 1 0.5897 5.151519772457773 6.381715682962272 18.182294222490192 0 0 0
1658 553 1 0.5897 0.2709595923663942 10.064902972012346 21.14739282833451 1 0 0
1573 525 2 -1.1794 1.7191431243051547 9.072254284419 22.041188007694327 0 0 0
1572 524 1 0.5897 4.356985123801287 10.84411354128956 20.85853423130309 0 0 0
1579 527 2 -1.1794 4.6862059162933445 9.450780000169607 18.092844100673243 0 0 0
1570 524 2 -1.1794 3.4079651405885945 10.968539395269726 20.85068175061568 0 0 0
141 47 1 0.5897 4.5089497654985164 9.287210744686906 22.75936963358859 0 0 -1
1571 524 1 0.5897 3.15991373876504 10.864705808302942 19.93204826123172 0 0 0
1567 523 2 -1.1794 6.156134574454844 10.83258537670239 20.72002153691013 0 0 0
1575 525 1 0.5897 2.400186440579912 9.533040931269447 21.55121321566061 0 0 0
1585 529 2 -1.1794 4.705528920287714 12.189924244153014 17.753020660934606 0 0 0
1564 522 2 -1.1794 2.807823914494743 7.721150237368235 19.28229275873763 0 0 0
1583 528 1 0.5897 0.9407649530941654 10.836288495353745 19.15346059347896 0 0 0
1561 521 2 -1.1794 4.70679029751909 8.01867123076089 21.3495315242834 0 0 0
1580 527 1 0.5897 3.8848953316791413 9.061371617893654 18.44280032743229 0 0 0
1587 529 1 0.5897 4.735294535322029 11.256893544008893 17.96485741249583 0 0 0
1710 570 1 0.5897 2.2948679807673895 12.14970954601225 21.65049813137281 0 0 0
1562 521 1 0.5897 4.640485680309932 7.2482482701410085 21.913732067181353 0 0 0
1566 522 1 0.5897 3.161566303788491 6.9687358268285005 18.807946520747784 0 0 0
1589 530 1 0.5897 1.5352473598281122 7.251968431318952 22.015514097877645 0 0 0
1584 528 1 0.5897 1.628581936452844 10.15763976563318 17.988041452669606 0 0 0
1563 521 1 0.5897 3.9350768633779785 7.970084655207095 20.785365178908307 0 0 0
1582 528 2 -1.1794 1.6826689278139455 10.92665055816935 18.555463604825036 0 0 0
1565 522 1 0.5897 1.8582014076083524 7.626291980714266 19.208809725496295 0 0 0
1576 526 2 -1.1794 0.13453182404047634 7.406523280507608 19.299452851556968 0 0 0
1709 570 1 0.5897 0.781363304340974 12.125712781370643 21.62830286181307 0 0 0
1581 527 1 0.5897 5.390530767646926 8.90380943911384 18.44065663141189 0 0 0
1608 536 1 0.5897 6.081536138219523 7.7009372914964835 20.083889750546806 0 0 0
241 81 2 -1.1794 4.683123583815489 14.025091241640688 4.320299512903159 0 0 0
242 81 1 0.5897 4.639868098039525 13.281683416003208 4.921746532770275 0 0 0
243 81 1 0.5897 4.0097329997374125 13.842981719382166 3.664880678237105 0 0 0
244 82 2 -1.1794 2.9263267462162403 13.830237828491681 2.2843049233407053 0 0 0
245 82 1 0.5897 1.9928151403037646 14.03193946191383 2.348006451353636 0 0 0
246 82 1 0.5897 3.2911521137147943 14.54485083340326 1.7623012571643624 0 0 0
250 84 2 -1.1794 3.314346456994938 17.241321105070043 3.608718463630987 0 0 0
251 84 1 0.5897 2.9597341387386105 17.1275546480594 2.7269567447187115 0 0 0
252 84 1 0.5897 4.259730446492282 17.135575680332693 3.5026629409756844 0 0 0
253 85 2 -1.1794 1.667623881412056 15.424126141055865 4.837179711179798 0 0 0
254 85 1 0.5897 0.9183802655831649 15.85672279149189 4.427664471031405 0 0 0
255 85 1 0.5897 2.4278141938347892 15.916110536525474 4.5268927479633225 0 0 0
259 87 2 -1.1794 4.491131793882937 15.699046589038636 0.9024672910402144 0 0 0
260 87 1 0.5897 4.555212522143751 16.642463808680006 0.7535856251818603 0 0 0
262 88 2 -1.1794 1.5713402864496917 17.06634074129331 1.4726128348715057 0 0 0
263 88 1 0.5897 1.645376722546508 16.308787995343316 0.8921790101704051 0 0 0
264 88 1 0.5897 1.478628509677117 17.813505261003492 0.8814990404677975 0 0 0
269 90 1 0.5897 1.6395697052243912 13.5959199386545 5.055085104428649 0 0 0
146 49 1 0.5897 5.485195054013538 12.822632485455442 1.2145789792982562 0 0 0
288 96 1 0.5897 5.902219804296396 14.856204659114368 1.7204279077883347 0 0 0
338 113 1 0.5897 0.3036784102431052 17.001412246573793 2.8168002452946994 1 0 0
268 90 2 -1.1794 1.691727194162958 12.646017144961826 5.161262144230351 0 0 0
147 49 1 0.5897 3.988195998018801 12.633075821718528 1.336359075632051 0 0 0
389 130 1 0.5897 2.3030725699991774 18.440874510056922 4.493297616806397 0 0 0
247 83 2 -1.1794 6.020387055035508 17.10358563557989 3.5092350328009245 0 0 0
287 96 1 0.5897 6.040253709565949 14.183849458002959 3.0697798918512165 0 0 0
265 89 2 -1.1794 4.576900522150672 18.43433527331232 0.6865752610203643 0 0 0
256 86 2 -1.1794 0.12656548804529394 14.09114943523251 2.230632620678027 0 0 0
145 49 2 -1.1794 4.737775826022696 12.405133180735769 0.7864793100277704 0 0 0
261 87 1 0.5897 4.432046352341887 15.321062904123016 0.025055096744640792 0 0 0
627 209 1 0.5897 5.377474830580532 12.393498894721182 6.94415455345762 0 0 0
740 247 1 0.5897 4.876785776964038 15.268315196341685 5.781454295792764 0 0 0
721 241 2 -1.1794 4.665641772648631 13.78572543013694 10.17043904001694 0 0 0
1221 407 1 0.5897 4.802879099322887 15.176245364681765 11.34958996751722 0 0 0
728 243 1 0.5897 5.127449162767097 16.97357293520985 9.401032677852795 0 0 0
742 248 2 -1.1794 1.5846939119106493 17.035797383845917 7.149796860260155 0 0 0
731 244 1 0.5897 2.8688499125950564 17.18754197602494 8.529121938758307 0 0 0
768 256 1 0.5897 6.16671450350971 14.491130158614297 7.571068375866509 0 0 0
724 242 2 -1.1794 2.995774250900805 13.858667865741165 7.810636909249763 0 0 0
744 248 1 0.5897 1.554792208716963 16.27524515004138 6.569335718493644 0 0 0
736 246 2 -1.1794 0.290593002186453 13.977850801560574 7.668413773544399 0 0 0
722 241 1 0.5897 3.8710220692260813 13.85946417898292 9.641924079554476 0 0 0
749 250 1 0.5897 1.6717692754943085 13.482039080292452 10.659540340789862 0 0 0
741 247 1 0.5897 4.770528147451018 16.533774581075058 6.605674662022521 0 0 0
739 247 2 -1.1794 4.907058595055393 15.589453346494066 6.682657034161967 0 0 0
745 249 2 -1.1794 4.648541816649655 18.30969793213042 6.428225836515391 0 0 0
732 244 1 0.5897 2.957292260543901 16.350308681720236 9.787339591658235 0 0 0
723 241 1 0.5897 5.371584583676704 13.692974738270884 9.530726916647122 0 0 0
818 273 1 0.5897 0.31807953156559116 16.930342522961922 8.56286474828068 1 0 0
726 242 1 0.5897 3.470748929103615 13.208081848383339 7.293545273944401 0 0 0
735 245 1 0.5897 1.1432848451289321 15.66109354772173 10.165664529477002 0 0 0
727 243 2 -1.1794 6.080059728889593 16.88937838074002 9.360725542964845 0 0 0
730 244 2 -1.1794 3.363918044281151 17.09427296785084 9.343002773949163 0 0 0
733 245 2 -1.1794 1.8633336530297215 15.238816635182552 10.63408962586102 0 0 0
743 248 1 0.5897 1.5655837558387744 17.789141067317416 6.559562502174499 0 0 0
869 290 1 0.5897 0.7960554596032818 18.064308559005752 10.53419598289949 0 0 0
870 290 1 0.5897 2.2928875427612754 18.183218051991105 10.341523656030137 0 0 0
748 250 2 -1.1794 1.6441795507556483 12.530104216439984 10.56274199278778 0 0 0
737 246 1 0.5897 1.2339545555700626 13.833693534230646 7.74237341093144 0 0 0
725 242 1 0.5897 3.4820402386879277 14.672414246779995 7.677835972001481 0 0 0
1201 401 2 -1.1794 4.787653679884835 13.952541397552684 15.706365889481326 0 0 0
1202 401 1 0.5897 5.543151111829114 13.832279262882677 15.131085089081122 0 0 0
1203 401 1 0.5897 4.8180988780328695 13.203933335693728 16.3021219540752 0 0 0
1204 402 2 -1.1794 3.080938989759209 13.944180423115517 13.480096356031929 0 0 0
1205 402 1 0.5897 3.5218415126015796 14.022631329010308 14.326053906478489 0 0 0
1206 402 1 0.5897 3.561442336083958 13.254557126185567 13.022070443490712 0 0 0
1210 404 2 -1.1794 3.552555106410721 16.982302814274846 14.917096572119826 0 0 0
1211 404 1 0.5897 3.230983727937821 17.77133422663414 15.35332259915766 0 0 0
1212 404 1 0.5897 4.504444085485248 17.082552536104153 14.910927283616754 0 0 0
1213 405 2 -1.1794 1.9414498936069189 15.307734713488008 16.420219689239786 0 0 0
1214 405 1 0.5897 1.1798244988896942 15.732817736637761 16.02596199660251 0 0 0
1215 405 1 0.5897 2.6880478793599325 15.64769059075178 15.927038177442263 0 0 0
1218 406 1 0.5897 1.3041930072834635 13.949939151082459 13.589334660469866 0 0 0
1219 407 2 -1.1794 4.775782607757309 15.673670419003576 12.166942178180744 0 0 0
1220 407 1 0.5897 4.036850769105223 15.302718254603976 12.649206718807337 0 0 0
1222 408 2 -1.1794 1.6261636461912692 16.817632884663723 12.890034977441257 0 0 0
1223 408 1 0.5897 1.7754529273339434 17.505124083616174 12.240940781697459 0 0 0
1224 408 1 0.5897 2.3703366035003244 16.88654964696846 13.488068239911522 0 0 0
1227 409 1 0.5897 4.7765850528263165 17.473530747933196 12.118333904827551 0 0 0
1229 410 1 0.5897 1.6339911564417413 13.47272289500883 16.44707333431004 0 0 0
1298 433 1 0.5897 0.5056630240951139 16.878282355452782 14.293079713882634 1 0 0
1228 410 2 -1.1794 1.4170254849598705 12.545729660987265 16.34751130415303 0 0 0
1247 416 1 0.5897 6.057907144185439 14.643273166885608 13.156102272926038 0 0 0
1225 409 2 -1.1794 4.5889044833207535 18.40811467405846 12.0309544460759 0 0 0
1216 406 2 -1.1794 0.3498783546802207 13.921581884727411 13.657591066310355 0 0 0
734 245 1 0.5897 1.785602224016785 15.55917483686912 11.532722535818163 0 0 0
1248 416 1 0.5897 5.977160406776305 13.131671439869294 13.181283262507913 0 0 0
1350 450 1 0.5897 1.1734439551221392 18.374514442866257 15.935793856793167 0 0 0
1297 433 2 -1.1794 0.1028587285424436 16.950850511104875 15.158341034973672 1 0 0
1106 369 1 0.5897 4.747645088298964 12.52097634491941 11.525396024102912 0 0 0
1700 567 1 0.5897 4.868579754208853 15.309402889406412 17.071518596214005 0 0 0
1701 567 1 0.5897 4.009093118491803 15.130407111402112 18.304824954861484 0 0 0
1697 566 1 0.5897 1.240470221504071 13.66980791088323 19.17126013437385 0 0 0
1830 610 1 0.5897 2.1564529858688797 18.425866722817275 21.560736367661512 0 0 0
1728 576 1 0.5897 6.047957104271488 14.57013355508386 18.915372334124783 0 0 0
1778 593 1 0.5897 0.334612931028353 16.878763726433306 19.717951169862815 1 0 0
1692 564 1 0.5897 2.7534641434837637 17.0635282921696 19.91695666557705 0 0 0
1779 593 1 0.5897 0.3127061834977458 17.598573557585965 21.04959234216386 1 0 0
1685 562 1 0.5897 3.538985701810375 13.140428227926074 18.795282282643527 0 0 0
1694 565 1 0.5897 0.8307833828541756 15.55564676795973 21.652998733085926 0 0 0
1708 570 2 -1.1794 1.5255996788746746 12.505622738598253 22.09519209763277 0 0 0
1682 561 1 0.5897 5.327074973746671 14.065628698664973 20.906038212545376 0 0 0
1687 563 2 -1.1794 6.024148374565228 16.94707849613276 20.781624358619617 0 0 0
1699 567 2 -1.1794 4.7213643528989095 15.661842955415885 17.949201435566945 0 0 0
1690 564 2 -1.1794 3.2057750344330076 17.028859177002225 20.759813202922544 0 0 0
1695 565 1 0.5897 1.5400085840232944 14.281569897553876 22.0601007426441 0 0 0
1707 569 1 0.5897 4.804302393247227 17.44057754673794 17.9649959983954 0 0 0
1691 564 1 0.5897 2.7474840739267785 16.346422157467245 21.250221146594754 0 0 0
1681 561 2 -1.1794 4.525145816992276 14.113458334693803 21.42642942721837 0 0 0
1683 561 1 0.5897 4.606625660636862 13.399682798752496 22.058999597355005 0 0 0
1705 569 2 -1.1794 4.87068082474476 18.39543325660899 17.952557045412924 0 0 0
1702 568 2 -1.1794 1.6618119310924149 17.032193508509422 18.481712528097 0 0 0
1696 566 2 -1.1794 0.2852030223589485 13.678637540048566 19.230981517527763 0 0 0
1703 568 1 0.5897 1.824910209410281 16.332945262478923 17.84869782278984 0 0 0
1689 563 1 0.5897 5.083958510173305 17.073684149396904 20.65436236872065 0 0 0
1693 565 2 -1.1794 1.594740791800749 15.234535056980226 22.132015002532746 0 0 0
1586 529 1 0.5897 5.440016396148373 12.569173923333263 18.23562630417176 0 0 0
1684 562 2 -1.1794 3.0172174267014102 13.838888573187656 19.190459673629714 0 0 0
1704 568 1 0.5897 1.8284520884526096 17.83976545600737 17.995567004923203 0 0 0
1686 562 1 0.5897 3.3950682546329705 13.95697963429521 20.061941118060638 0 0 0
361 121 2 -1.1794 4.732092210560498 20.06988149871772 4.295618166768687 0 0 0
362 121 1 0.5897 3.982765065695917 19.985102218205725 3.706117960700426 0 0 0
363 121 1 0.5897 4.684074030963571 19.296442523100737 4.857541532892481 0 0 0
364 122 2 -1.1794 2.991753669651046 20.14707954770136 2.0757517605148275 0 0 0
365 122 1 0.5897 3.274126582378553 20.89319398320302 1.5467501203113296 0 0 0
366 122 1 0.5897 2.035906561530761 20.197148411039876 2.070362419442683 0 0 0
370 124 2 -1.1794 3.4114297894699717 23.207699983931008 3.338241096883425 0 0 0
371 124 1 0.5897 4.35704161900345 23.137503136587476 3.4688987086743626 0 0 0
372 124 1 0.5897 3.050296050446198 22.43994760467549 3.781419938299089 0 0 0
373 125 2 -1.1794 1.7111743390962835 21.487858240651455 4.813527121907446 0 0 0
375 125 1 0.5897 0.9910871741903612 21.987703653302674 4.429015912520685 0 0 0
379 127 2 -1.1794 4.530045315827999 21.881256890735187 0.5288236530351152 0 0 0
380 127 1 0.5897 4.636424031740736 22.832472784386916 0.5422887812639585 0 0 0
381 127 1 0.5897 5.251762102762797 21.551435862435973 1.0641224390873636 0 0 0