LAMMPS data file via write_data, version 30 Jul 2021, timestep = 12000000

1296 atoms
2 atom types
864 bonds
1 bond types
432 angles
1 angle types

-10.621765801680064 12.601765801680065 xlo xhi
-9.15041798204677 12.14041598204677 ylo yhi
0.03224447845952483 21.827754521542133 zlo zhi
-9.136315974770277 1.8456527031115197 2.8931556103137446 xy xz yz

Masses

1 1.008
2 15.999

Pair Coeffs # lj/cut/tip4p/long/omp

1 0 0
2 0.21084 3.1668

Bond Coeffs # harmonic/omp

1 450 0.9572

Angle Coeffs # harmonic/omp

1 55 104.52

Atoms # full

282 94 1 0.5897 -10.437502060943693 -4.144952121478877 1.4071519909259658 1 1 0
323 108 1 0.5897 -6.346933307636966 -5.676673190062253 3.2036008966522114 1 1 0
280 94 2 -1.1794 -9.61075177268856 -4.60661168962289 1.2672861310327028 1 1 0
270 90 1 0.5897 -8.433543467871191 -7.341775098990453 2.002567229937811 1 1 0
163 55 2 -1.1794 -7.22280845396408 -7.983008506821717 0.728509390162642 1 1 0
164 55 1 0.5897 -6.365526808376535 -8.291694376765909 1.021755736903224 1 1 0
298 100 2 -1.1794 -6.008302945017724 -7.206356726292231 4.042481211627472 1 1 0
269 90 1 0.5897 -9.2591744497818 -6.1041912108408525 2.2828958437985514 1 1 0
268 90 2 -1.1794 -9.079126474004065 -6.98463174185161 2.612488757510424 1 1 0
260 87 1 0.5897 -6.9074536974035805 -6.291436988866199 0.22118591616621447 1 1 0
324 108 1 0.5897 -7.2016530944789565 -4.4437094128298105 3.4063513572198314 1 1 0
73 25 2 -1.1794 -8.365816668387582 -3.843487062161101 4.689942067023026 1 0 0
314 105 1 0.5897 -8.762751868291657 -6.762418282731149 4.463386498364083 1 1 0
261 87 1 0.5897 -6.667812823240146 -5.082036494150744 1.0998816743986932 1 1 0
299 100 1 0.5897 -6.565045158360954 -7.98414594226573 4.006045012670546 1 1 0
322 108 2 -1.1794 -6.467827373577351 -4.779818543998676 2.8917325326979357 1 1 0
313 105 2 -1.1794 -8.79478454996914 -6.464928297712449 5.3727560655332995 1 1 0
281 94 1 0.5897 -8.940032769567633 -3.9291511774823658 1.3534894399250574 1 1 0
275 92 1 0.5897 -10.485570398333621 -7.919172665229622 3.2682340770397937 1 1 0
75 25 1 0.5897 -9.193501757026409 -3.4520402234926664 4.410812320231616 1 0 0
315 105 1 0.5897 -8.695767768474115 -5.514444888717065 5.31793476054756 1 1 0
259 87 2 -1.1794 -6.725572087766318 -5.3524377030284835 0.18335297859486127 1 1 0
300 100 1 0.5897 -5.115419389898664 -7.547881439594228 3.9943123076129265 1 1 0
165 55 1 0.5897 -7.487904651573125 -8.612263206239644 0.05757502549969845 1 1 0
74 25 1 0.5897 -8.026185817932184 -3.2406217666259174 5.351447095321056 1 0 0
429 143 1 0.5897 -6.398309603302452 -7.21037512987035 8.696106287932004 1 0 0
428 143 1 0.5897 -6.627272693701051 -7.050562407251408 10.184244671407697 1 0 0
427 143 2 -1.1794 -5.956514299376872 -6.959316593011152 9.50740764980547 1 0 0
419 140 1 0.5897 -8.78857257329173 -5.423441865511332 8.781414148641263 1 0 0
418 140 2 -1.1794 -9.519554174833255 -5.858004562052886 9.220847540800852 1 0 0
413 138 1 0.5897 -7.578742288203291 -3.6752256537978782 7.680008241925896 1 0 0
414 138 1 0.5897 -6.750746176963995 -4.932185121369609 7.51779939879623 1 0 0
350 117 1 0.5897 -7.219386819842676 -4.1581537581993615 9.933300340679663 0 0 0
627 209 1 0.5897 -10.288650841046639 -6.7884714807845725 6.383191191280922 1 1 0
618 206 1 0.5897 -7.704295163313161 -7.402182883590732 6.592138780061146 1 1 0
616 206 2 -1.1794 -7.34441311158823 -7.943401431653577 7.294902718225728 1 1 0
412 138 2 -1.1794 -7.441244804197398 -4.544775758834136 8.055787717179289 1 0 0
420 140 1 0.5897 -9.106945056669979 -6.4043195668326 9.88987331694292 1 0 0
349 117 2 -1.1794 -7.186506269266844 -3.855272924634443 10.840857914935285 0 0 0
351 117 1 0.5897 -7.041385378850739 -2.9115208004958113 10.773772729530267 0 0 0
633 211 1 0.5897 -5.803258696634656 -6.114690011286622 5.567264030686181 1 1 0
631 211 2 -1.1794 -5.513206655206325 -5.516067319980756 6.255680862374823 1 1 0
626 209 1 0.5897 -10.502864027817813 -6.585885693009381 7.868316261482333 1 1 0
684 228 1 0.5897 -8.620668940438934 -6.452642647674042 14.322117581382013 0 0 0
662 221 1 0.5897 -8.908631289995032 -4.111741682078752 13.276036765758423 0 0 0
740 247 1 0.5897 -10.901447753574582 -3.2130133349459715 12.137530308605692 1 0 0
652 218 2 -1.1794 -5.796346443768294 -5.362264993549735 12.768965981288684 0 0 0
682 228 2 -1.1794 -7.941833342360171 -6.844475881163293 13.772606983516036 0 0 0
780 260 1 0.5897 -7.4800767355367555 -3.9590490990664406 15.227150670832536 0 0 0
779 260 1 0.5897 -7.194492589296859 -2.887339962365579 14.19661885146593 0 0 0
778 260 2 -1.1794 -7.9109834240567265 -3.374567698340072 14.603463319266815 0 0 0
768 256 1 0.5897 -9.44143846704724 -2.5039286042789453 15.047884359589313 0 0 0
654 218 1 0.5897 -6.244027172812372 -4.818509289398344 12.120733206965939 0 0 0
653 218 1 0.5897 -6.503121515048009 -5.774654959398584 13.265644531107851 0 0 0
661 221 2 -1.1794 -9.371748034080756 -4.347577714792413 12.47209556010824 0 0 0
729 243 1 0.5897 -8.091941786136132 -7.116398099242123 11.991749798798885 1 0 0
766 256 2 -1.1794 -10.311650897031496 -2.1086654477117115 15.099817451209578 0 0 0
788 263 1 0.5897 -4.98717299678401 -4.529052091284795 15.58211378707884 0 0 0
663 221 1 0.5897 -8.72956156795574 -4.209568005779829 11.775740967729503 0 0 0
727 243 2 -1.1794 -8.182906887599506 -7.391673956552649 11.07937554348881 1 0 0
767 256 1 0.5897 -10.913194663228944 -2.8531706775520345 15.109824330949367 0 0 0
758 253 1 0.5897 -9.60012379629182 -5.204703474845397 16.289958048341582 0 0 0
1110 370 1 0.5897 -10.353365594318733 -3.7242055526029603 17.864200633095432 0 0 0
1097 366 1 0.5897 -9.081582340855302 -5.704393928090173 18.58428890129199 0 0 0
1087 363 2 -1.1794 -6.571467313573613 -4.909706468806229 16.453936647252394 0 0 0
1088 363 1 0.5897 -6.727923108035487 -5.853142972214604 16.49493233061691 0 0 0
1152 384 1 0.5897 -6.867026114898772 -3.98551130721021 19.70644979354432 0 0 0
1225 409 2 -1.1794 -8.193617173547981 -3.3394449263379196 20.90621878783852 0 0 0
1227 409 1 0.5897 -8.974565961066993 -2.883028149009067 20.593149933729215 0 0 0
1142 381 1 0.5897 -8.762674783988915 -6.306360216807345 20.673025827508642 0 0 0
1109 370 1 0.5897 -8.895601395510177 -3.3244923447887427 17.78033822618367 0 0 0
1108 370 2 -1.1794 -9.472873837072116 -4.087986172174528 17.771453579105618 0 0 0
1248 416 1 0.5897 -5.894257238250655 -1.491946079639348 20.72819115222158 0 0 0
1089 363 1 0.5897 -6.541431488001176 -4.631395327791493 17.369425480350174 0 0 0
1150 384 2 -1.1794 -6.172142241960443 -4.35358918539985 19.160590396076792 0 0 0
1219 407 2 -1.1794 -10.54475154302881 -1.836821736924648 20.331806570838424 0 0 0
1129 377 2 -1.1794 -7.703700322394862 -1.9199071565788826 17.8267398891395 0 0 0
1151 384 1 0.5897 -6.0110920504848915 -5.221706693502375 19.530272664159938 0 0 0
1130 377 1 0.5897 -7.313236416864958 -1.7388852199015616 18.681845631436694 0 0 0
1143 381 1 0.5897 -8.523991520614196 -5.134523225498532 21.60149210761372 0 0 0
1141 381 2 -1.1794 -8.652295558147665 -6.083077386926149 21.597386206999207 0 0 0
1131 377 1 0.5897 -6.990351798147203 -1.7831266527901004 17.203233672415752 0 0 0
1121 374 1 0.5897 -4.742472835856418 -3.393705516735552 18.562360795350905 0 0 0
1226 409 1 0.5897 -7.909489524720448 -2.8341576977098004 21.668044210039092 0 0 0
1096 366 2 -1.1794 -8.960386563174525 -6.604347572702046 18.88697428398309 0 0 0
44 15 1 0.5897 -9.901336420269224 0.8498169090917838 0.21622755902291607 1 0 0
69 23 1 0.5897 -11.071984827875152 -2.5626153520451567 3.2358570689188606 1 0 0
98 33 1 0.5897 -12.015160378009782 0.420367255980274 4.460467564973554 1 0 0
272 91 1 0.5897 -9.419286954033446 -1.2597345117092598 1.1463785107860691 1 1 0
271 91 2 -1.1794 -10.221575111481615 -0.8491066718159193 0.8239935601213717 1 1 0
256 86 2 -1.1794 -12.041475813616678 -3.272006160329088 1.773230237650334 1 1 0
258 86 1 0.5897 -12.455840382141512 -2.718008702850674 1.1116485618324838 1 1 0
301 101 2 -1.1794 -7.990525017639784 -2.247413568580127 1.5772638703048358 1 1 0
67 23 2 -1.1794 -10.67523197153346 -2.333485081371573 4.076406029571256 1 0 0
107 36 1 0.5897 -9.311081160170021 1.4428772339023936 3.2856715550703632 1 0 0
68 23 1 0.5897 -11.369513146658786 -2.4827960083018583 4.718291769364782 1 0 0
52 18 2 -1.1794 -12.133935433991484 0.11927095408265309 2.635202878855123 1 0 0
53 18 1 0.5897 -12.284025155771804 0.993426972837554 2.275266478070043 1 0 0
82 28 2 -1.1794 -8.978467397808952 -0.0703070348881667 4.23527849399419 1 0 0
83 28 1 0.5897 -9.633614708860012 -0.7678180161783796 4.257704696237556 1 0 0
54 18 1 0.5897 -11.459024519913084 -0.2595115855793573 2.07187721526553 1 0 0
84 28 1 0.5897 -8.140254101086974 -0.5298573827795288 4.186174011817405 1 0 0
99 33 1 0.5897 -11.699608652972783 1.7031109424547548 5.200146024893167 1 0 0
59 20 1 0.5897 -13.52915113831485 -0.8123640465706359 3.2835801105425655 1 0 0
97 33 2 -1.1794 -11.972139182769956 0.7962267632274695 5.339869656170813 1 0 0
273 91 1 0.5897 -10.510106917209368 -1.415339308510072 0.10808337682703366 1 1 0
302 101 1 0.5897 -7.572593117156346 -2.033123039316135 2.411436531943442 1 1 0
527 176 1 0.5897 -11.90125596873178 1.6997671738207032 8.771657842235221 1 0 0
526 176 2 -1.1794 -12.616357367877486 1.2567913140757554 9.228478259197399 1 0 0
426 142 1 0.5897 -8.70912761448553 -1.644328440109259 7.0063906376500515 1 0 0
411 137 1 0.5897 -13.474443457247991 0.5054859960984732 6.337894145732903 1 0 0
402 134 1 0.5897 -10.755214635637428 -0.16444395176706372 6.531359483689393 1 0 0
401 134 1 0.5897 -10.991055554532254 -1.171462653206678 7.63699786374774 1 0 0
400 134 2 -1.1794 -10.295428746331611 -0.7036308854138795 7.174914632840574 1 0 0
537 179 1 0.5897 -9.344239243160281 0.09922369039179024 8.557830424644928 1 0 0
536 179 1 0.5897 -9.552369573488066 0.10443533396054683 10.057553848292534 1 0 0
535 179 2 -1.1794 -8.883025447288531 0.23460915848365893 9.385701784462944 1 0 0
528 176 1 0.5897 -12.185391289405691 0.7584903093886997 9.92294109857551 1 0 0
424 142 2 -1.1794 -7.847628771583551 -2.0316206225000535 6.851352372275542 1 0 0
435 145 1 0.5897 -7.460274268373082 -0.8257608626655379 9.74786469005034 0 0 0
522 174 1 0.5897 -9.730693992584987 2.2383582390749552 7.513946161678055 1 0 0
425 142 1 0.5897 -7.241400800528906 -1.2918886031396575 6.890447462532387 1 0 0
417 139 1 0.5897 -8.769739790883735 1.183373357208449 5.5295636772786665 1 0 0
410 137 1 0.5897 -13.623833040311439 0.5169390380803627 7.8445688629747155 1 0 0
430 144 2 -1.1794 -12.344444463930861 -2.0949213379539 8.374753997227453 1 0 0
769 257 2 -1.1794 -12.390585132393822 2.892202901589103 12.435329268426443 0 0 0
762 254 1 0.5897 -9.229782871142442 2.2254806129936284 12.060022992021107 0 0 0
761 254 1 0.5897 -9.426107651014238 1.214683985202992 13.16993326180719 0 0 0
760 254 2 -1.1794 -8.747176912867197 1.6791178837086687 12.680396170850493 0 0 0
888 296 1 0.5897 -10.606040602690346 3.228046585455081 15.374957174318638 0 0 0
792 264 1 0.5897 -11.56707300305131 0.6254300133364641 14.462679045043833 0 0 0
837 279 1 0.5897 -11.151295999440478 0.04397737071461272 12.048028174722527 1 0 0
896 299 1 0.5897 -8.097469345816528 2.5247913300185054 15.560127887744715 0 0 0
791 264 1 0.5897 -10.733628049520107 -0.6112072237737038 14.201981384973784 0 0 0
790 264 2 -1.1794 -10.904771574135221 0.27006877585332667 13.869884808749335 0 0 0
770 257 1 0.5897 -11.953310046134497 3.0049385033828937 13.279431070525355 0 0 0
771 257 1 0.5897 -11.694062807449535 3.0006725160220533 11.787693692267252 0 0 0
835 279 2 -1.1794 -11.0997434930385 -0.23591676562098485 11.133981180399818 1 0 0
836 279 1 0.5897 -11.261723996206396 -1.1788886242278034 11.162253389084796 1 0 0
866 289 1 0.5897 -12.584616442471926 1.8813049101354462 16.292628537305642 0 0 0
865 289 2 -1.1794 -12.84886781350762 1.260962136510619 15.613113475397792 0 0 0
897 299 1 0.5897 -7.856337313107758 2.552604347036006 14.065607531938278 0 0 0
857 286 1 0.5897 -13.345336769295098 1.289924524091802 12.312752510127838 1 0 0
1009 337 2 -1.1794 -11.170803191817688 3.7296630931126735 21.065317741717728 0 -1 0
1260 420 1 0.5897 -9.850770719772887 3.1596966363921446 19.82820037749535 0 0 0
1205 402 1 0.5897 -12.072340282129044 1.474173729231497 18.666858018322625 0 0 0
1259 420 1 0.5897 -9.053186487957356 1.8832315545861693 19.66591388347837 0 0 0
1258 420 2 -1.1794 -9.190338446541647 2.745196968263608 19.27292385940651 0 0 0
1246 416 2 -1.1794 -6.297846664802269 -0.9085274370893561 20.085515148482443 0 0 0
1206 402 1 0.5897 -11.3007441027173 0.19919969995869025 18.400486349101392 0 0 0
1250 417 1 0.5897 -11.62733436836617 0.7427732458777392 20.73974236753998 0 0 0
1236 412 1 0.5897 -7.943886980522063 -0.08594568986647388 20.35909636668314 0 0 0
1217 406 1 0.5897 -11.75509384453985 3.7588342440932134 17.816970090415712 0 0 0
1235 412 1 0.5897 -9.417386603005108 -0.41021623335563184 20.483689972869687 0 0 0
1234 412 2 -1.1794 -8.803063150921584 0.323496064206088 20.460970542693826 0 0 0
1196 399 1 0.5897 -9.710759023174525 1.2619366147001418 16.678141565711957 0 0 0
1011 337 1 0.5897 -11.972828584792047 4.132683677555171 20.732836958696794 0 -1 0
1218 406 1 0.5897 -13.248122675021824 3.5084829499431187 17.80948767828396 0 0 0
1197 399 1 0.5897 -9.461512680641409 2.5108747938041667 17.496794629366853 0 0 0
1100 367 1 0.5897 -9.203992121966586 -0.8071951813343503 17.6058197349523 0 0 0
1216 406 2 -1.1794 -12.404706131125971 3.056456345202484 17.786763873839867 0 0 0
1099 367 2 -1.1794 -10.038255165636977 -0.4781444209788077 17.27123423069544 0 0 0
1249 417 2 -1.1794 -11.639603442159341 1.065184826044426 21.64105965309353 0 0 0
1204 402 2 -1.1794 -11.97292073682361 0.5720437942657828 18.97100116656388 0 0 0
1251 417 1 0.5897 -11.472154671631703 2.0043238791536666 21.56227309507686 0 0 0
1229 410 1 0.5897 -7.819407060524883 3.7003822046964654 18.542484894137054 0 0 0
1195 399 2 -1.1794 -9.584610909605724 2.207331621194358 16.597249058345987 0 0 0
1101 367 1 0.5897 -10.24415082233851 -1.0521670232315703 16.533321559723795 0 0 0
1010 337 1 0.5897 -10.905255327099207 4.289788103519262 21.79480510998763 0 -1 0
40 14 2 -1.1794 -15.004445886878685 3.8016107497335625 1.7475999887139106 1 0 0
177 59 1 0.5897 -14.110556988369655 4.470001393293286 3.2163987709923036 1 0 0
42 14 1 0.5897 -15.404904413516768 4.424315629779013 1.1408454169550495 1 0 0
108 36 1 0.5897 -10.120324702753026 2.7088062728768882 3.4711252055922084 1 0 0
43 15 2 -1.1794 -9.790559500590577 1.8001394618988158 0.1871826816143593 1 0 0
55 19 2 -1.1794 -13.211044850003773 6.251989709187537 0.63173644849191 1 0 0
56 19 1 0.5897 -12.420536157229463 5.868919753837034 1.011970548799293 1 0 0
85 29 2 -1.1794 -10.949414802723004 4.74956318679944 1.4896950297025502 1 0 0
190 64 2 -1.1794 -11.896316746767429 7.044919258549408 4.023250391450784 1 0 0
66 22 1 0.5897 -13.425108090922926 2.9852669900972018 1.4367445189554315 1 0 0
65 22 1 0.5897 -11.940289472316636 3.2777178210610014 1.3960454751877318 1 0 0
64 22 2 -1.1794 -12.569737317870803 2.5566750572927788 1.4076561476101035 1 0 0
192 64 1 0.5897 -11.052688761838297 6.605964377860593 3.9145513823428812 1 0 0
176 59 1 0.5897 -14.327030013281849 4.580536192732126 4.7108690416858545 1 0 0
191 64 1 0.5897 -12.527204480935923 6.331648447879132 4.1205483046050135 1 0 0
175 59 2 -1.1794 -13.665516763657212 4.706049250710006 4.0304266319477975 1 0 0
183 61 1 0.5897 -12.146937209521555 3.6844782744361435 4.32520563713354 1 0 0
181 61 2 -1.1794 -11.316780500863864 3.3702439779347415 4.68342278059472 1 0 0
45 15 1 0.5897 -9.790935617251826 2.0700070119998575 1.1056887851922683 1 0 0
162 54 1 0.5897 -14.496863798013052 6.783652689472035 1.8153585215845187 1 0 0
167 56 1 0.5897 -16.52151977117154 6.3710576709482485 3.2290341940324954 1 0 0
182 61 1 0.5897 -11.127709210738356 3.9655042543136716 5.408906998768643 1 0 0
106 36 2 -1.1794 -9.44796737581461 2.314811418076431 2.915231988084067 1 0 0
86 29 1 0.5897 -10.591630576866413 4.940733441165738 2.356810647982058 1 0 0
508 170 2 -1.1794 -13.502116407799262 6.306691274856098 7.289383194789656 1 0 0
645 215 1 0.5897 -12.518285844547382 7.050011231592249 8.632247808530654 1 0 0
644 215 1 0.5897 -12.788679687081576 7.1962133427223645 10.114821556290599 1 0 0
643 215 2 -1.1794 -12.104211329106073 7.309845545360661 9.455326534329794 1 0 0
509 170 1 0.5897 -14.235964998557831 5.858403312662944 7.709834763700028 1 0 0
519 173 1 0.5897 -16.42770084340737 7.474554994759126 6.180327082025776 1 0 0
458 153 1 0.5897 -10.287480255057492 2.820844896678043 9.931046641263539 0 0 0
532 178 2 -1.1794 -11.040656212805825 5.02723884392908 6.920534951168716 1 0 0
543 181 1 0.5897 -10.664405372012906 6.230858263230891 9.83330556234832 0 0 0
510 170 1 0.5897 -13.900399854250697 6.796192985889592 6.569601330222351 1 0 0
521 174 1 0.5897 -10.6094967629831 3.4494428847194865 7.7438036365788525 1 0 0
534 178 1 0.5897 -11.891282955582993 5.4581257521824735 7.004023951023366 1 0 0
636 212 1 0.5897 -15.366102128212198 7.694592611979301 9.731073609275635 1 0 0
459 153 1 0.5897 -10.027372231716882 4.088762752489579 10.716457710664418 0 0 0
457 153 2 -1.1794 -10.182218765328509 3.1502814244374893 10.823718373832854 0 0 0
533 178 1 0.5897 -10.404255706147516 5.740337256032726 6.972806706507638 1 0 0
520 174 2 -1.1794 -10.3898100612409 2.593069721279724 8.1106688633563 1 0 0
518 173 1 0.5897 -16.674381492712214 7.498860068251103 7.674004055408219 1 0 0
541 181 2 -1.1794 -9.834781477090068 5.852329083652762 10.12425200888824 0 0 0
887 296 1 0.5897 -10.263226205345873 4.257381659891426 14.318984514506361 0 0 0
944 315 1 0.5897 -14.557005978170057 5.994980182717432 11.139627792735856 1 0 0
876 292 1 0.5897 -12.574645089506074 4.610334372858242 14.945046018339342 0 0 0
874 292 2 -1.1794 -13.432159565030263 5.031626541263364 15.003161557988776 0 0 0
943 315 2 -1.1794 -14.394403855394238 6.932820246163081 11.038408584431352 1 0 0
945 315 1 0.5897 -14.261759652720984 7.25115445336534 11.931458201051107 1 0 0
848 283 1 0.5897 -13.906830601374523 3.861085971717829 12.088816838365126 1 0 0
900 300 1 0.5897 -14.588444030381615 7.851173574423873 14.342361182346396 0 0 0
899 300 1 0.5897 -13.741432373152811 6.605798561735453 14.189232920557123 0 0 0
898 300 2 -1.1794 -13.886674264647898 7.473498404738047 13.812092423168052 0 0 0
869 290 1 0.5897 -12.48552831613282 8.49327511093817 12.990988453241133 0 0 0
886 296 2 -1.1794 -10.993540153117502 3.7487099567439213 14.671345487321933 0 0 0
875 292 1 0.5897 -14.052978714868658 4.305321359352517 15.06066787298372 0 0 0
649 217 2 -1.1794 -15.842343174129862 8.47886310502224 15.556595540874048 0 -1 0
1018 340 2 -1.1794 -11.833763085327304 7.437102572668083 20.31425834096589 0 -1 0
1019 340 1 0.5897 -12.45269810820239 6.706997874245298 20.303734938242574 0 -1 0
1020 340 1 0.5897 -10.971803473607379 7.021275517032036 20.29663149903765 0 -1 0
980 327 1 0.5897 -12.597241847126469 8.396810914986775 16.454095852884226 0 -1 0
1237 413 2 -1.1794 -10.709739406527346 5.2348065767140834 17.882913186299657 0 0 0
1043 348 1 0.5897 -12.210676173781717 9.033417082265176 19.48754823393717 0 -1 0
1030 344 2 -1.1794 -9.390239162792923 6.18849926151792 20.069189355474762 0 -1 0
1032 344 1 0.5897 -8.939765326206395 5.654692430780276 20.723728950226672 0 -1 0
1003 335 2 -1.1794 -13.495939769549897 5.183309720453272 20.34403418053453 0 -1 0
1033 345 2 -1.1794 -14.542260675521035 8.222247486871462 21.637866063391574 0 -1 0
1239 413 1 0.5897 -10.049023149802784 5.4337959012335 17.219434490963035 0 0 0
1238 413 1 0.5897 -10.290820272530611 5.459338312124254 18.713889352962358 0 0 0
990 330 1 0.5897 -14.288367061252732 7.297875329177048 18.342301039967335 0 -1 0
1208 403 1 0.5897 -12.10690552535199 6.258832815151516 17.505184168576214 0 0 0
1207 403 2 -1.1794 -12.91965348131976 6.643067170791621 17.176520666070203 0 0 0
989 330 1 0.5897 -15.152903441332228 8.530933102855931 18.49717238090787 0 -1 0
1034 345 1 0.5897 -14.583669695788906 7.87596560472282 20.746324443911714 0 -1 0
1035 345 1 0.5897 -14.467651851509675 9.169721536766607 21.52405819881546 0 -1 0
988 330 2 -1.1794 -14.976033569602603 7.676272787225701 18.890245975992936 0 -1 0
1209 403 1 0.5897 -13.166569243715994 6.086762615563467 16.437622950829866 0 0 0
57 19 1 0.5897 -11.584595278483798 8.567136547115814 21.69631059130033 1 0 -1
214 72 2 -1.1794 -12.465632796403657 9.48767142603477 2.9488760126635096 1 0 0
174 58 1 0.5897 -16.490277773755576 10.025059334237673 1.5198583082090775 1 0 0
173 58 1 0.5897 -15.039258064667509 10.44223615433951 1.4085560057031565 1 0 0
172 58 2 -1.1794 -15.614854683288069 9.68014261019597 1.3441284949788976 1 0 0
151 51 2 -1.1794 -12.79914038561851 8.950231550866553 0.21876151044766926 1 0 0
161 54 1 0.5897 -15.268190134321689 8.058242717604928 2.0843394033761644 1 0 0
285 95 1 0.5897 -17.245623525899223 11.565572903748775 3.1604281468118267 1 0 0
148 50 2 -1.1794 -18.118414031963795 10.818423057128994 1.744852451322846 1 0 0
215 72 1 0.5897 -12.31683448499706 8.57398224704441 3.1922842071914665 1 0 0
150 50 1 0.5897 -18.495440910569865 11.369999342479352 1.059343436264945 1 0 0
216 72 1 0.5897 -13.174014233124213 9.776909863089083 3.524075047573702 1 0 0
284 95 1 0.5897 -17.437499037069088 11.68662367556722 4.6574402437771365 1 0 0
153 51 1 0.5897 -12.799510419048245 9.217492192003876 1.1380289790117066 1 0 0
291 97 1 0.5897 -15.24869232406547 10.756287479739859 4.329908359333068 1 0 0
289 97 2 -1.1794 -14.471193235432356 10.327163292076763 4.68707097646758 1 0 0
283 95 2 -1.1794 -16.789539107854438 11.814359117244253 3.9644881068514475 1 0 0
193 65 2 -1.1794 -13.948805236688207 11.954042856881005 1.4787445297786979 1 0 0
205 69 2 -1.1794 -14.83669120821552 7.710738617250998 5.2919377691032565 1 0 0
207 69 1 0.5897 -14.765261997088118 8.663961648560443 5.242023421635398 1 0 0
152 51 1 0.5897 -12.948730486247753 8.00511790776944 0.24355874515267062 1 0 0
290 97 1 0.5897 -14.197662647899072 10.89014287229086 5.411394376137759 1 0 0
206 69 1 0.5897 -14.809129990448128 7.419924290041655 4.380264859207086 1 0 0
160 54 2 -1.1794 -15.085029395901481 7.19287044723267 2.450142516493395 1 0 0
640 214 2 -1.1794 -14.071794501468354 12.118134462661148 6.834968302620923 1 0 0
630 210 1 0.5897 -12.906339587490281 9.340413302262165 7.523135907398602 1 0 0
629 210 1 0.5897 -13.796107825891376 10.547921256200103 7.728280707722077 1 0 0
628 210 2 -1.1794 -13.640073870685205 9.659510839211189 8.048601192158326 1 0 0
566 189 1 0.5897 -13.40583138891582 10.064440902130213 9.821497386467371 0 0 0
641 214 1 0.5897 -13.431266787887807 12.829407783190417 6.842635837163563 1 0 0
634 212 2 -1.1794 -15.747327889309382 8.20861720715351 9.01919708047196 1 0 0
642 214 1 0.5897 -14.917267444701197 12.555472004301832 6.9355471260578625 1 0 0
635 212 1 0.5897 -15.003858069863835 8.67075271602254 8.63195952139499 1 0 0
567 189 1 0.5897 -13.012838865518052 11.29584680570248 10.609753012447417 0 0 0
565 189 2 -1.1794 -13.239594227298074 10.371622623517334 10.712829953409177 0 0 0
617 206 1 0.5897 -17.2325943120699 12.859845523908595 7.631382250229141 1 0 0
327 109 1 0.5897 -13.556201971276614 13.31625069904158 9.840630825807484 0 -1 0
525 175 1 0.5897 -11.776683536869792 8.179852597216504 5.510768841263153 1 0 0
523 175 2 -1.1794 -11.611426744441218 8.726551766778696 6.279037150339333 1 0 0
658 220 2 -1.1794 -16.545206482309254 12.079387860424012 14.996026778618015 0 -1 0
870 290 1 0.5897 -12.155413656899126 9.448913441114785 11.864065075270563 0 0 0
680 227 1 0.5897 -10.946471733681053 9.665546189333623 15.503453413312174 0 -1 0
671 224 1 0.5897 -13.322430853499396 11.329699220380457 14.139943505612564 0 -1 0
868 290 2 -1.1794 -11.748696586174507 8.889847326521588 12.526127347729188 0 0 0
956 319 1 0.5897 -16.962532782053476 10.886134398281206 12.031204740462526 1 0 0
660 220 1 0.5897 -15.6906246680255 11.691358150701417 14.808053584846574 0 -1 0
879 293 1 0.5897 -14.82963145401219 10.021415594517551 11.75159036428961 0 0 0
878 293 1 0.5897 -14.990734676979677 10.156215415906543 13.251058207267192 0 0 0
877 293 2 -1.1794 -15.474144090088561 9.937165821880834 12.454349657971767 0 0 0
683 228 1 0.5897 -16.886602495840396 13.606586788003318 14.19013732985909 0 -1 0
670 224 2 -1.1794 -14.019614731556603 10.860822246422488 14.598607095675813 0 -1 0
672 224 1 0.5897 -13.56318637721591 10.333285426918588 15.254104678792274 0 -1 0
659 220 1 0.5897 -17.155945029343876 11.343157327742174 14.961258841489677 0 -1 0
728 243 1 0.5897 -17.47016537159279 12.955159417143387 11.127441465127356 1 -1 0
650 217 1 0.5897 -15.615110341824982 9.067631564352608 16.276404530392348 0 -1 0
1140 380 1 0.5897 -11.880665908356477 12.737075730035032 20.73515200832422 0 -1 0
1138 380 2 -1.1794 -12.3630830477716 13.194371061757591 20.04633548680451 0 -1 0
1128 376 1 0.5897 -13.973864719711003 14.077619356352868 20.29026619366955 0 -1 0
1127 376 1 0.5897 -15.461091685533987 13.797632282914426 20.330675767033586 0 -1 0
1022 341 1 0.5897 -13.338398636995642 12.497742342194817 18.62720844959009 0 -1 0
1119 373 1 0.5897 -15.09092117976325 11.220988536806127 20.696911539907507 0 -1 0
1117 373 2 -1.1794 -14.240311377783012 10.877548591170287 20.970263101362253 0 -1 0
1044 348 1 0.5897 -13.033449205325429 10.290341070042688 19.674734571635156 0 -1 0
1042 348 2 -1.1794 -12.314157575841904 9.926331861871676 19.158576347363905 0 -1 0
981 327 1 0.5897 -12.512108391594783 9.641460124871172 17.311855760148458 0 -1 0
1126 376 2 -1.1794 -14.824294818156364 14.511805299948874 20.35698475135832 0 -1 0
979 327 2 -1.1794 -12.501646157813074 9.347726350627243 16.400765861764857 0 -1 0
1111 371 2 -1.1794 -16.56270269050065 12.211108188874407 20.305406677881543 0 -1 0
991 331 2 -1.1794 -16.078646218715228 13.746580812197143 17.18870732112477 0 -1 0
992 331 1 0.5897 -15.268761714233193 13.372429396944325 17.535572589409753 0 -1 0
1023 341 1 0.5897 -13.084687885913276 12.421775162222731 17.136444673442956 0 -1 0
1021 341 2 -1.1794 -13.772754636023947 12.316534615609564 17.793586539742925 0 -1 0
1001 334 1 0.5897 -14.863983346413066 10.87871104549343 17.784613995759777 0 -1 0
1000 334 2 -1.1794 -15.492790989401122 10.157109945816982 17.772897334665966 0 -1 0
1098 366 1 0.5897 -17.404003600058235 14.336180751183926 18.326822247513608 0 -1 0
1002 334 1 0.5897 -16.348943521645268 10.584430330223151 17.79735227458446 0 -1 0
1013 338 1 0.5897 -10.839064937076369 10.769420393619592 18.642027815865788 0 -1 0
1118 373 1 0.5897 -13.924091051139712 11.507371470746476 21.618110465067673 0 -1 0
993 331 1 0.5897 -16.376769235662252 13.111552538222464 16.53736534304884 0 -1 0
318 106 1 0.5897 -2.706032455946014 -4.183050969202807 1.5238345773473003 1 1 0
311 104 1 0.5897 -2.735783217094337 -7.874173915929672 3.330450670024107 1 1 0
293 98 1 0.5897 -5.073002849027211 -3.8020647613470047 2.3324548262212725 1 1 0
304 102 2 -1.1794 -1.355035193735489 -6.953238151730609 2.688784546854136 1 1 0
3 1 1 0.5897 -1.3761706722839335 -3.301013999398176 4.458372893396655 0 0 0
316 106 2 -1.1794 -1.8308436121152774 -4.554390503267033 1.412666229120387 1 1 0
242 81 1 0.5897 -0.9990616130870702 -6.5852866505870296 4.495163060555937 0 1 0
306 102 1 0.5897 -0.6864022443045688 -7.3505868206651055 2.130787838025855 1 1 0
305 102 1 0.5897 -1.4699964467423516 -6.07141739840864 2.3346560404341647 1 1 0
310 104 2 -1.1794 -3.5096897203569695 -8.3508888946036 3.6305613949223776 1 1 0
243 81 1 0.5897 -0.7940236433660814 -5.379953394230581 5.388097015572676 0 1 0
241 81 2 -1.1794 -0.9796740593180946 -6.318609077705026 5.4143956594215 0 1 0
201 67 1 0.5897 0.3564524082271987 -8.501448323214783 0.14487172815923327 1 1 0
317 106 1 0.5897 -1.241715384628284 -3.8022956001881933 1.4720775638789214 1 1 0
632 211 1 0.5897 -4.710968000781038 -5.912165329340054 6.595880598134555 1 1 0
356 119 1 0.5897 1.1400738535145152 -6.979305945188666 10.106488644539391 0 0 0
555 185 1 0.5897 -2.5172153904961725 -6.685657198610941 6.280758719333588 0 1 0
554 185 1 0.5897 -2.7709375636657585 -6.7183830722358975 7.7730912491788 0 1 0
553 185 2 -1.1794 -3.1941665095187703 -6.87856576091846 6.929500115766521 0 1 0
546 182 1 0.5897 -0.03764004612198413 -7.335743259064372 6.6416868809070255 0 1 0
359 120 1 0.5897 -4.674204310360481 -3.1373326306302705 8.712585659765873 0 0 0
544 182 2 -1.1794 0.40722553936823935 -7.91627564314442 7.259231231986939 0 1 0
348 116 1 0.5897 -1.407340128705954 -6.324312493395972 9.766100868121455 0 0 0
347 116 1 0.5897 -1.1231089864536479 -5.348271432089545 8.644173304887444 0 0 0
346 116 2 -1.1794 -1.835987144264994 -5.821035558097087 9.073795533500016 0 0 0
336 112 1 0.5897 -3.4270646137923553 -5.004682341086588 9.45165951851572 0 0 0
334 112 2 -1.1794 -4.296612618251933 -4.653360043034224 9.643160088897694 0 0 0
404 135 1 0.5897 -5.264240215446011 -3.757450085863458 5.6909182124930195 1 0 0
335 112 1 0.5897 -4.868371601864533 -5.42095455742409 9.654730705932398 0 0 0
326 109 1 0.5897 -3.25650632699295 -7.701736182010053 10.770266900379735 0 0 0
793 265 2 -1.1794 -2.1079854974535603 -5.917201787612314 15.600590288912441 0 0 0
802 268 2 -1.1794 -2.630683056743643 -2.121297187197346 15.014314306165655 0 0 0
803 268 1 0.5897 -3.272769195029956 -2.830595878121537 14.984880535726662 0 0 0
795 265 1 0.5897 -2.9418267746402904 -5.556738564222108 15.298952034546723 0 0 0
787 263 2 -1.1794 -4.308499343781101 -4.417504839934647 14.916299953709341 0 0 0
774 258 1 0.5897 -5.126063450769017 -2.3313699674317885 13.009730414864801 0 0 0
689 230 1 0.5897 1.269058836383877 -5.89327958991618 13.109156387700187 0 0 0
718 240 2 -1.1794 -0.1995722464836227 -6.79112299936979 13.760228328553268 0 0 0
699 233 1 0.5897 -0.9736240510299385 -4.162038991622671 11.741500603712417 0 0 0
697 233 2 -1.1794 -1.6641074187064504 -4.337160966898763 12.380957487953383 0 0 0
677 226 1 0.5897 -2.6915113991794986 -5.88510665620337 12.314231589713781 0 0 0
676 226 2 -1.1794 -3.2669229630271914 -6.649907517992695 12.299186705106132 0 0 0