LAMMPS data file via write_data, version 30 Jul 2021, timestep = 24000000

864 atoms
2 atom types
576 bonds
1 bond types
288 angles
1 angle types

0.5911665277317031 17.616405872269432 xlo xhi
1.787847352974346 21.84133044701709 ylo yhi
0.7212217830231751 21.491974016988827 zlo zhi

Masses

1 1.00794
2 15.9994

Pair Coeffs # lj/cut/tip4p/long/omp

1 0 0
2 0.21084 3.1668

Bond Coeffs # harmonic/omp

1 450 0.9572

Angle Coeffs # harmonic/omp

1 55 104.52

Atoms # full

65 1 1 0.5897 1.967483581618436 4.475755626796621 0.7807703498406418 7 2 -3
66 1 1 0.5897 2.4568321422933233 3.5133052021519813 1.8420140184014366 7 2 -3
64 1 2 -1.1794 1.8261756830450213 4.2175161326700525 1.6916129212588222 7 2 -3
569 1 1 0.5897 4.248158997626112 5.46273878131594 2.240257565899138 5 0 0
688 1 2 -1.1794 3.1771276694829464 4.333834395600052 4.425543608339021 4 0 1
398 1 1 0.5897 1.4012048605787808 5.125480569449264 3.9185400402187645 4 6 -9
690 1 1 0.5897 3.755811405222267 4.3631607876101075 3.663613331426985 4 0 1
140 1 1 0.5897 3.1801546198449713 2.8349942404563455 5.2421602391692215 -1 0 0
689 1 1 0.5897 3.2864082890647803 5.188295111568893 4.842932610849406 4 0 1
570 1 1 0.5897 4.735122418174293 4.116414540248675 1.7480567923946435 5 0 0
517 1 2 -1.1794 2.832758832063007 6.791881569314421 5.883729399884952 1 -4 -7
524 1 1 0.5897 2.7165565946791426 4.698733516678439 8.169625180601113 0 -1 5
496 1 2 -1.1794 0.9186156385112512 3.176654176419775 10.153030595511957 1 3 1
857 1 1 0.5897 1.8278119159053894 6.244389274109575 8.782226086359284 0 -2 0
525 1 1 0.5897 2.073311446815111 3.519433406384177 8.867854813247643 0 -1 5
799 1 2 -1.1794 4.414778828552473 2.434885058558617 10.944208846211353 -2 -1 6
856 1 2 -1.1794 2.7394748228722015 6.476332816663105 8.605210797958406 0 -2 0
523 1 2 -1.1794 2.5098301443568736 3.771270373789264 8.05403303984125 0 -1 5
479 1 1 0.5897 4.801962126124921 5.692622116572539 10.738818819451659 -2 4 -4
141 1 1 0.5897 2.6825935533105603 2.771460334164445 6.67056976453182 -1 0 0
837 1 1 0.5897 0.6376836974511413 3.8448692745700614 7.341367919993248 -1 5 2
858 1 1 0.5897 2.752172914682233 6.708128080685068 7.676571316990903 0 -2 0
801 1 1 0.5897 4.729478700367606 3.2122195386349883 10.48270220071875 -2 -1 6
139 1 2 -1.1794 3.0571128878043794 2.2312764344254123 5.9747229874303445 -1 0 0
781 1 2 -1.1794 4.2220314577268265 3.918018756737561 13.154342479781052 -2 -4 0
485 1 1 0.5897 2.5124995274048727 3.473917885835311 12.792103394209793 -3 -1 -4
783 1 1 0.5897 4.286639771955651 3.2163098520055566 12.506509567630086 -2 -4 0
478 1 2 -1.1794 4.828174085052593 6.521787842095084 11.216368967591139 -2 4 -4
522 1 1 0.5897 1.8100146905076135 1.8001935105367701 13.40430194960504 -1 0 0
486 1 1 0.5897 1.412295711738588 3.3365669121534154 11.761253285275568 -3 -1 -4
484 1 2 -1.1794 1.5599309714829523 3.4620626613581535 12.698650813659809 -3 -1 -4
70 1 2 -1.1794 4.756693760378386 3.0688214975564643 15.941353406845252 1 2 -12
515 1 1 0.5897 3.0857932235880434 2.9064957753610923 16.048979719304548 1 -2 -1
681 1 1 0.5897 4.616397855550882 6.43942813474578 13.157593701523146 -5 -7 1
552 1 1 0.5897 0.8660804297960442 6.508795943420296 12.215585699856197 0 2 -3
567 1 1 0.5897 4.633116254233221 6.652932433466624 15.94878323827771 0 8 -9
551 1 1 0.5897 0.7936818421059586 5.065767707410859 12.667686854354825 0 2 -3
72 1 1 0.5897 4.81569263039838 3.1911518110254757 14.993794234746769 1 2 -12
229 1 2 -1.1794 3.795265712205559 6.642023403605506 19.76992968122005 -1 7 -1
311 1 1 0.5897 1.1296289042551493 6.003771819642529 16.461677224808014 -3 0 1
310 1 2 -1.1794 1.7702984421800385 5.611045620430941 17.054607801008714 -3 0 1
566 1 1 0.5897 4.8324776852512565 5.776422033674585 17.166984756149592 0 8 -9
305 1 1 0.5897 2.9961303115051594 2.906544744112219 20.095257192503222 6 -4 -10
516 1 1 0.5897 1.9356233172652977 3.822807067662579 16.408773677143145 1 -2 -1
368 1 1 0.5897 0.9030277134075901 2.3240959201961333 19.048066941668 2 9 -3
231 1 1 0.5897 2.940830938023618 6.2105909058662085 19.76089554076344 -1 7 -1
565 1 2 -1.1794 4.47305110862016 6.619899260439323 16.89195375728254 0 8 -9
586 1 2 -1.1794 1.4545018647780905 5.072920467365327 19.757097615116592 1 3 0
304 1 2 -1.1794 3.871027521309247 3.216556114587434 20.329161368718154 6 -4 -10
312 1 1 0.5897 2.613816689728564 5.950562923746782 16.755484498655562 -3 0 1
587 1 1 0.5897 1.4265819867212168 5.087732496345053 18.800363671256672 1 3 0
367 1 2 -1.1794 1.8306490015524652 2.0947891055868775 18.99153969874608 2 9 -3
369 1 1 0.5897 2.0964147294520985 2.383394659879977 18.118347171390894 2 9 -4
306 1 1 0.5897 4.464504580697168 2.56649188030225 19.953042068803157 6 -4 -10
336 1 1 0.5897 4.693523598406491 4.322074265111031 18.731487382943275 13 3 3
230 1 1 0.5897 4.0413322377076675 6.706446135931671 18.847122998344762 -1 7 -1
514 1 2 -1.1794 2.173172511029739 2.8982665489886204 16.33763364453837 1 -2 -1
61 1 2 -1.1794 1.6945992777265786 8.852214777171422 4.1841024732870515 -4 5 2
53 1 1 0.5897 2.2653297060905464 7.02819135927268 1.9511041377936447 -8 -2 2
643 1 2 -1.1794 3.9580684325457542 10.249874483555756 4.682547627652205 3 -3 3
54 1 1 0.5897 3.5980054419002507 7.718513670464627 1.7525898473476629 -8 -2 2
645 1 1 0.5897 4.053251739515195 11.19818612775999 4.593650684532202 3 -3 3
256 1 2 -1.1794 0.8706277514691412 9.616251728412191 0.8832971765390776 3 -5 -1
62 1 1 0.5897 2.217162552054049 9.62519393242474 4.397872704827011 -4 5 2
52 1 2 -1.1794 3.184649379443599 6.98938208054673 2.2149406966367398 -8 -2 2
518 1 1 0.5897 2.215378231697499 7.272133913169924 5.331924198967534 1 -4 -7
63 1 1 0.5897 2.2978422154515648 8.27757659102986 3.712762824469502 -4 5 2
258 1 1 0.5897 1.0633369343422943 10.336012734461372 1.4841858225478552 3 -5 -1
343 1 2 -1.1794 4.585553497834388 9.118893678261777 0.9737840297507069 -5 -1 4
644 1 1 0.5897 4.726164064690577 9.8890250752727 4.2397427498628915 3 -3 3
90 1 1 0.5897 0.6367828100766104 8.018238369005488 1.7128211671021307 7 -4 5
78 1 1 0.5897 2.11420059227188 11.796845408803827 5.83028992665858 -4 -7 -1
448 1 2 -1.1794 1.7386191721479896 11.740517193186434 2.2702973015947983 7 2 0
449 1 1 0.5897 1.9235998513441108 11.610868177521976 3.2004918625367997 7 2 0
456 1 1 0.5897 3.080471962856285 9.978677146914439 10.22747589298193 -3 0 2
428 1 1 0.5897 2.3400850093215384 10.44176366225407 7.386982332722746 3 3 -6
454 1 2 -1.1794 3.499979874124334 9.512645099015295 9.504230374792606 -3 0 2
427 1 2 -1.1794 2.5848719074489583 11.367142832304127 7.380228780144808 3 3 -6
168 1 1 0.5897 0.6476297090610658 10.075474975692217 10.472149010737319 -3 3 2
292 1 2 -1.1794 4.691773831890795 9.071032844857626 7.093752207367095 -1 0 1
455 1 1 0.5897 3.2352572053192885 8.600197941112064 9.620996894432283 -3 0 2
519 1 1 0.5897 3.5945793938247346 7.367780739369878 5.948866364546702 1 -4 -7
293 1 1 0.5897 4.457804168750884 9.635006168019927 6.356545582596916 -1 0 1
766 1 2 -1.1794 1.0235895093876735 9.039181797764876 7.229985766559896 1 -6 3
294 1 1 0.5897 4.109680169201187 9.347475839354324 7.801580736702294 -1 0 1
768 1 1 0.5897 0.6272784199262418 8.182743373161347 7.069587657226045 1 -6 3
429 1 1 0.5897 1.9198856339807124 11.795236650021833 7.919505124023789 3 3 -6
234 1 1 0.5897 3.0541683980735406 7.519156620931005 11.314664072183358 1 4 0
378 1 1 0.5897 3.2519178191038556 7.897367490524618 14.338448788289059 0 5 2
233 1 1 0.5897 2.419269712362021 8.230985067343976 12.490318420452484 1 4 0
376 1 2 -1.1794 2.557405537514497 8.55100166074615 14.420242302104796 0 5 2
697 1 2 -1.1794 4.4026659873596135 10.614360876472922 13.936075800436104 -3 -1 -4
232 1 2 -1.1794 2.2082011642133867 7.805134833213237 11.659420293349719 1 4 0
404 1 1 0.5897 1.8175300238607517 10.933638132924793 12.227242623705687 4 -3 -3
377 1 1 0.5897 3.0188644948652428 9.389197640476954 14.44862523268539 0 5 2
287 1 1 0.5897 1.0302981173066237 7.662922216788498 15.14547828354232 3 3 1
541 1 2 -1.1794 0.6490634992152096 10.53564608580246 16.074827764777762 -7 0 2
403 1 2 -1.1794 2.324825890310067 11.151156590576411 11.445182381041509 4 -3 -3
699 1 1 0.5897 4.830051548380073 10.564480765352894 13.081008375540325 -3 -1 -4
679 1 2 -1.1794 4.625211787307924 6.940354799706905 13.973241080592668 -5 -7 1
758 1 1 0.5897 0.6815703661442176 10.469300399288006 14.198468731931282 -2 2 3
86 1 1 0.5897 2.7500653431772957 9.713115426082034 19.233919275269532 -1 6 2
855 1 1 0.5897 1.704527373950605 9.49287050857792 16.993751780419302 0 2 -1
853 1 2 -1.1794 2.3329164266567792 9.03959618185305 17.555832250487246 0 2 -1
85 1 2 -1.1794 2.90603677136883 10.258586575366595 20.004899127053843 -1 6 2
543 1 1 0.5897 1.1460323835785378 11.303666035740314 16.356655203916443 -7 0 2
854 1 1 0.5897 3.179418157023396 9.180425728982113 17.131724085378252 0 2 -1
42 1 1 0.5897 3.953847313725073 11.391126001487454 19.194531052287967 2 -3 1
87 1 1 0.5897 2.0807019876132067 10.231499655019695 20.489002354784333 -1 6 2
344 1 1 0.5897 3.9282337987557896 9.656216866436868 21.302412438857807 -5 -1 3
76 1 2 -1.1794 1.6792158452504324 12.090680541779465 5.02984808711214 -4 -7 -1
861 1 1 0.5897 1.3721640474262706 15.963505094751389 2.418028784220608 -1 -2 4
796 1 2 -1.1794 2.115137036717175 14.807747746726324 4.978231403995439 3 -6 -5
238 1 2 -1.1794 4.577396369436592 13.134556773219957 4.400142949022053 -4 -5 -1
239 1 1 0.5897 4.195593507087917 14.005819912878994 4.293349485323665 -4 -5 -1
780 1 1 0.5897 4.098684770588047 13.734974693387251 1.6469000478550213 -3 -1 -1
860 1 1 0.5897 1.705565146285882 14.54615915584364 2.8327313298265624 -1 -2 4
797 1 1 0.5897 1.8471967597569219 13.889124098928457 4.953630489145481 3 -6 -5
798 1 1 0.5897 2.655270590539385 14.879202104037114 5.765269255147028 3 -6 -5
215 1 1 0.5897 3.334683646447391 15.860323344492386 2.3963850885783726 0 2 2
859 1 2 -1.1794 1.1699315438749256 15.049223272432291 2.2193145847492914 -1 -2 4
778 1 2 -1.1794 4.04655107060394 12.965094387975391 1.0804561036431444 -3 -1 -1
214 1 2 -1.1794 4.15926291667005 15.383254988878388 2.302845939992194 0 2 2
216 1 1 0.5897 4.728433879971156 15.753111214986777 2.977792471459359 0 2 2
450 1 1 0.5897 2.5613141845580087 12.066224380822511 1.9051101111595627 7 2 0
675 1 1 0.5897 0.6066494305080639 16.103898958527186 4.761632943757888 -2 -3 -5
77 1 1 0.5897 0.760193971089232 11.854293605525445 5.155510328152183 -4 -7 -1
433 1 2 -1.1794 2.980536759273007 16.196575433507114 10.042831611179913 -3 1 -3
828 1 1 0.5897 3.767211274431672 14.115019258329433 7.4952173824016635 0 -2 5
593 1 1 0.5897 1.3500871515676787 13.086875710249622 9.657235677503838 -3 -4 -2
826 1 2 -1.1794 3.232764325994245 14.905835429120087 7.567599215477175 0 -2 5
827 1 1 0.5897 3.4111811471377678 15.236308062056017 8.448067768300014 0 -2 5
755 1 1 0.5897 2.3692628940711935 14.848693182677286 10.967247928295471 -6 -5 1
201 1 1 0.5897 4.191770752347331 12.305386656416085 7.5998080173173195 4 -4 -3
592 1 2 -1.1794 0.904480279182492 12.859347657455203 8.84119555010897 -3 -4 -2
434 1 1 0.5897 3.8490070229849653 16.59210983676443 10.117479868513296 -3 1 -3
734 1 1 0.5897 2.5230760725674797 14.414821911962864 14.895156858500286 6 1 -4
756 1 1 0.5897 1.4879632744422067 14.261888080879286 12.04936079837978 -6 -5 1
735 1 1 0.5897 1.1316276962053569 14.04182217596829 14.429610204681822 6 1 -4
612 1 1 0.5897 4.272364583945716 12.435613889841003 14.245726497287906 3 5 -2
6 1 1 0.5897 4.39715865631695 15.79115941818553 12.715679566500869 0 -1 -4
733 1 2 -1.1794 1.605662705190884 14.424045225164193 15.168165611583149 6 1 -4
405 1 1 0.5897 2.719234328422018 12.000495625169156 11.643496574337291 4 -3 -3
754 1 2 -1.1794 2.2694722049618496 14.079120660204369 11.527718261293026 -6 -5 1
610 1 2 -1.1794 4.170321617753027 13.363132087779045 14.459168767355893 3 5 -2
611 1 1 0.5897 4.440068348215524 13.82337347471367 13.664384635746709 3 5 -2
704 1 1 0.5897 1.077123624302334 15.4468221643606 19.931128250593346 2 -3 -5
464 1 1 0.5897 2.7551877019527375 12.728506103335148 17.40923559655266 3 2 -1
703 1 2 -1.1794 0.6282848181521273 16.151463064075344 19.463875284078224 2 -3 -5
547 1 2 -1.1794 1.752330763229588 13.662074253545162 19.999867247353485 10 -3 6
548 1 1 0.5897 1.0998292033802586 13.295544572462132 20.596697758130567 10 -3 6
549 1 1 0.5897 1.53201589732264 13.290223978139657 19.14578073237231 10 -3 6
463 1 2 -1.1794 1.8356010219739807 12.75856795109593 17.145201685185835 3 2 -1
247 1 2 -1.1794 1.381114862728222 16.366520252239013 17.047497142516107 -7 4 -1
705 1 1 0.5897 0.9236336516355734 16.064563362609398 18.557509957773146 2 -3 -5
248 1 1 0.5897 2.2561058395922986 16.52567222991192 17.401500883988618 -7 4 -1
465 1 1 0.5897 1.7968339454203295 13.454799121020336 16.48943730438608 3 2 -1
318 1 1 0.5897 4.478740323815749 15.871246243395637 18.92114465643769 -5 -2 -2
316 1 2 -1.1794 4.163365407803848 16.02437358331003 18.030439826202148 -5 -2 -2
779 1 1 0.5897 3.4607007012587876 13.228524570900383 21.141482282838503 -3 -1 -2
317 1 1 0.5897 4.729358477813492 16.717868018852744 17.691347426557286 -5 -2 -3
40 1 2 -1.1794 4.409447770930193 11.986007943737468 18.598875743594366 2 -3 1
249 1 1 0.5897 1.5018974326371684 15.653187601644653 16.420714658853182 -7 4 -1
12 1 1 0.5897 1.6688931949141457 21.182143764204167 1.1052209912382733 2 0 4
488 1 1 0.5897 2.4131584670592217 18.23136474270872 3.3614569933993197 -2 -3 4
487 1 2 -1.1794 2.328971929903937 17.595181788478516 2.651213919202153 -2 -3 4
770 1 1 0.5897 3.8142705346126395 21.15326226817664 2.0149428988453613 3 0 -2
349 1 2 -1.1794 2.576294983075226 20.115341067481264 4.412379447882939 -8 4 -5
489 1 1 0.5897 2.0386513193840727 18.111760098935882 1.8994666166843348 -2 -3 4
806 1 1 0.5897 4.516698897887941 18.18798648381643 2.6742585411799764 -2 2 -4
351 1 1 0.5897 1.6770536104782292 19.803482787891767 4.514281235226706 -8 4 -5
350 1 1 0.5897 2.6746426409006814 20.788442708107837 5.0858241361544705 -8 4 -5
695 1 1 0.5897 4.059627185194193 18.894262358254505 5.898864730882409 0 -1 -3
771 1 1 0.5897 2.5249856437685163 21.130310142044035 2.8081504743967627 3 0 -2
769 1 2 -1.1794 2.9811688936776553 21.613048076111177 2.1188624072288214 3 0 -2
227 1 1 0.5897 2.6345605150259215 20.4452375350501 10.498684798974011 4 -2 0
532 1 2 -1.1794 1.2927421818045368 17.89374164683827 7.141619045809726 -6 -2 0
533 1 1 0.5897 0.8346328007947232 17.680495495720088 6.32863183998709 -6 -2 0
203 1 1 0.5897 1.3115200082661596 18.70420995164939 10.053893455194828 -1 1 1
468 1 1 0.5897 3.865787714108645 20.506706909731047 8.303995842822554 5 -5 7
417 1 1 0.5897 1.6654610733110524 20.806049544523287 7.708063860121276 -2 -2 -1
415 1 2 -1.1794 0.7280472016905035 20.84933649061499 7.519207946715968 -2 -2 -1
204 1 1 0.5897 1.0419487718321168 17.77957414123447 8.88582579251912 -1 1 1
466 1 2 -1.1794 3.149697079805894 20.92630612428883 8.780885886436298 5 -5 7
467 1 1 0.5897 3.546494972614714 21.7032778333792 9.174757663676898 5 -5 7
696 1 1 0.5897 4.2658105524229395 17.797342209942727 6.92174066547223 0 -1 -3
202 1 2 -1.1794 0.8878038347911736 17.87680541607832 9.825533837641542 -1 1 1
435 1 1 0.5897 2.3731506397553233 16.921862078251223 10.188819060258352 -3 1 -3
534 1 1 0.5897 2.209499232453807 17.98793545505107 6.88288019882846 -6 -2 0
694 1 2 -1.1794 3.8820222362244725 17.967832936755805 6.061562413347595 0 -1 -3
346 1 2 -1.1794 4.846558606077508 17.954596411073542 8.524132220600038 0 3 -1
684 1 1 0.5897 2.8677643939744173 19.96097381790081 15.24106564959607 5 0 -8
521 1 1 0.5897 2.3234383027420638 20.627680133990903 12.679532043845294 -1 -1 0
420 1 1 0.5897 0.651679672282204 19.369885653551357 15.149458480904833 -10 -2 6
275 1 1 0.5897 4.084629536302209 20.505187616856038 13.640968327724398 -3 3 -2
520 1 2 -1.1794 2.301698503831448 21.043889004688225 13.5412513858032 -1 -1 0
682 1 2 -1.1794 2.5389347577924326 19.111116465776107 15.53412498375225 5 0 -8
851 1 1 0.5897 4.0829343635802715 17.84286793767784 11.955273433610797 -4 -4 -2
850 1 2 -1.1794 4.719467316206132 18.253259890418366 11.369893191834649 -4 -4 -2
692 1 1 0.5897 2.906320613378283 17.80793347369059 13.879691850255549 3 1 3
228 1 1 0.5897 3.104940638764095 19.26006158113099 11.31481271353732 4 -2 0
691 1 2 -1.1794 2.9010015974111383 17.263674579304954 13.09227956397724 3 1 3
693 1 1 0.5897 2.0158779018906774 16.900917595386495 13.057250971453568 3 1 3
226 1 2 -1.1794 2.341378819375066 19.8153850966413 11.157168553073655 4 -2 0
426 1 1 0.5897 4.116077579104656 20.692215248535526 18.846975925102104 12 -8 3
833 1 1 0.5897 2.956508458301634 18.95507842380227 19.401107184323934 2 0 -3
834 1 1 0.5897 1.8483989638703129 19.606373092749617 18.60116185073548 2 0 -3
814 1 2 -1.1794 3.7216443053841326 18.523362792569785 20.967448477770446 -5 4 -8
832 1 2 -1.1794 2.7260490299943405 19.234120111187714 18.51494288617208 2 0 -3
11 1 1 0.5897 1.280179714411264 21.118244541622154 20.41420130059738 2 0 3
815 1 1 0.5897 4.2017525808832 17.696571079965704 20.920878533078014 -5 4 -8
819 1 1 0.5897 0.6666441458039758 17.42081123949236 20.682523611124804 5 0 3
816 1 1 0.5897 4.382132521803653 19.1708641794263 21.213931302692778 -5 4 -8
10 1 2 -1.1794 0.9972889489461566 20.84071147856965 21.285524949416043 2 0 3
683 1 1 0.5897 2.6465231678422034 19.127127209661815 16.485142511599687 5 0 -8
818 1 1 0.5897 0.6807870438925419 18.915251976855593 20.924252791284854 5 1 3
20 1 1 0.5897 7.869472957931136 2.333988290289853 3.0754371622596497 -3 -2 0
300 1 1 0.5897 7.72763075604536 4.736042698030582 3.06448699857105 -4 -1 0
98 1 1 0.5897 8.406493193203978 3.5227065516853138 5.034911236677124 4 -3 8
112 1 2 -1.1794 5.737856601712428 6.343833039256513 4.757987620870996 -4 -1 0
298 1 2 -1.1794 7.882626095293584 5.28781691731227 2.2978195024484585 -4 -1 0
357 1 1 0.5897 7.3015297815440094 6.403113052456344 5.741056254149894 4 1 -3
99 1 1 0.5897 6.898598501313331 3.5525160530664524 5.1666488671749216 4 -3 8
97 1 2 -1.1794 7.600683938850336 3.4808661964412173 4.5199524501821795 4 -3 8
114 1 1 0.5897 6.010923295675133 5.880721813970391 3.9660117446999172 -4 -1 0
568 1 2 -1.1794 4.896400430228864 4.781146809118669 2.4176737074933152 5 0 0
299 1 1 0.5897 8.624092730809185 4.877458651014048 1.852743845726846 -4 -1 0
546 1 1 0.5897 6.183151814987537 5.409999846586375 0.8859121757752338 -2 5 6
482 1 1 0.5897 6.026221920315341 4.129694459673932 7.615109253380203 3 6 2
846 1 1 0.5897 5.78750389296341 5.348973889533978 9.157521619247177 -4 1 1
844 1 2 -1.1794 5.8282792719510566 4.495988495901596 9.589981381235077 -4 1 1
171 1 1 0.5897 7.853249364452806 2.6815267501000197 8.122325204549153 -3 5 -4
481 1 2 -1.1794 5.905266508559988 4.023654420135545 6.6715011895975955 3 6 2
581 1 1 0.5897 8.422610700951594 2.351017335626272 10.642693596737754 -5 -5 2
845 1 1 0.5897 6.71578175709067 4.449363277228642 9.945572130223963 -4 1 1
224 1 1 0.5897 8.985365343722417 6.551615741971071 10.568757951177552 7 6 -5
319 1 2 -1.1794 8.595252635605915 4.403686383205734 8.31576470890288 -1 -1 -1
483 1 1 0.5897 5.468061093914901 4.828593238571925 6.393614244909488 3 6 2
320 1 1 0.5897 8.368496620987786 4.767977740492504 7.460107118984279 -1 -1 -1
701 1 1 0.5897 7.068095106262523 6.627764386278079 7.605888480264964 5 -2 4
580 1 2 -1.1794 7.841492369240157 3.06401434016291 10.907675373679973 -5 -5 2
355 1 2 -1.1794 8.02655696465591 6.207183370095771 6.33454975554332 4 1 -3
800 1 1 0.5897 5.113980698458317 1.7905612756267075 10.8335093428401 -2 -1 6
603 1 1 0.5897 7.448417420670433 6.220517222322397 12.499220738104254 7 5 -1
670 1 2 -1.1794 6.995573469742687 4.839958480424896 13.688597024174378 5 4 -1
671 1 1 0.5897 7.270531580407341 5.098036584282847 14.568404684952842 5 4 -1
672 1 1 0.5897 7.080005332111461 3.8865056573969126 13.680783896922248 5 4 -1
714 1 1 0.5897 7.082518543299607 1.913896665634659 12.51899895140971 -5 -3 2
782 1 1 0.5897 5.092392787779445 4.31629968929767 13.164341086869934 -2 -4 0
582 1 1 0.5897 8.396259600423072 3.644850416722313 11.428380124734597 -5 -5 2
712 1 2 -1.1794 6.994651158196954 2.015560126619052 13.466734503317726 -5 -3 2
71 1 1 0.5897 5.155585352036938 2.212914381764562 16.098168075393573 1 2 -12
335 1 1 0.5897 5.13190047260246 3.755979243039112 17.397574420803906 13 3 3
362 1 1 0.5897 8.857649551085965 4.44199615649638 16.56778011721366 4 -5 -2
183 1 1 0.5897 8.199690603586722 3.808790653377048 19.344661359449695 -6 3 0
32 1 1 0.5897 7.136645594377562 3.133661099377944 21.40849750128604 4 8 1
544 1 2 -1.1794 6.180495662280141 5.569003464489661 20.712752261040716 -2 5 5
31 1 2 -1.1794 6.8708084827526745 2.9460198033142415 20.508277019518772 4 8 1
545 1 1 0.5897 5.283910525207701 5.841783318945101 20.51785208542404 -2 5 5
747 1 1 0.5897 6.954399429796821 5.035353478646318 17.070181887000736 -2 7 -9
334 1 2 -1.1794 5.395385988711311 4.370668913190727 18.08241900466102 13 3 3
746 1 1 0.5897 7.62419476101126 6.3619123345969 16.78106775696352 -2 7 -9
33 1 1 0.5897 6.4115264167651596 3.7362847200413754 20.22399172253455 4 8 1
745 1 2 -1.1794 7.501825910152509 5.482084725619972 16.42439411973991 -2 7 -9
181 1 2 -1.1794 8.979414772172078 4.36127063499918 19.289132941705898 -6 3 0
563 1 1 0.5897 8.862823219423634 2.302003986763253 16.446636288209376 5 0 6
113 1 1 0.5897 5.582735056863859 7.2430241986984205 4.46876219859824 -4 -1 0
491 1 1 0.5897 6.858069013301987 9.076856236484312 4.5559896589733935 -3 2 3
492 1 1 0.5897 6.794655186921264 8.718019581792678 3.086577149360653 -3 2 3
608 1 1 0.5897 6.429228734126823 10.737277226441726 2.3763023689155567 1 6 1
490 1 2 -1.1794 6.258934146727195 9.042953968701124 3.810236004233211 -3 2 3
345 1 1 0.5897 5.324682704846335 9.7107935305085 1.1138250011036597 -5 -1 4
337 1 2 -1.1794 8.115690418710516 8.022761507685818 2.0366028113248014 0 1 3
609 1 1 0.5897 7.743835458133173 10.699076577305332 1.6264241821491692 1 6 1
339 1 1 0.5897 7.71198451683809 8.332175942054697 1.2257070869373907 0 1 3
607 1 2 -1.1794 6.802082676074256 10.57329345226956 1.5100728802873764 1 6 1
338 1 1 0.5897 8.001717077125925 7.072624349092451 2.0140934765627323 0 1 3
702 1 1 0.5897 5.889811561098146 7.566761772423139 7.7538636401924625 5 -2 4
578 1 1 0.5897 8.650663379024985 10.14294038532026 10.753819606435032 4 -1 -3
207 1 1 0.5897 8.479704073966698 8.955800684107077 8.33810397324452 -1 1 2
138 1 1 0.5897 6.645075431799125 9.83123837104782 6.529220039423038 5 -10 6
206 1 1 0.5897 7.382402117036898 8.354665076117797 9.190525013351072 -1 1 2
149 1 1 0.5897 7.292633033317755 11.060266963408578 8.496925839990947 -1 3 0
205 1 2 -1.1794 7.763990224859126 9.192409767966227 8.928068846503468 -1 1 2
700 1 2 -1.1794 6.302819680068505 6.801527534521075 8.153992002070677 5 -2 4
68 1 1 0.5897 5.36026330314947 10.476000563920866 10.628464334791055 2 -5 -2
136 1 2 -1.1794 7.528625375233697 9.830735479891459 6.160958026942096 5 -10 6
480 1 1 0.5897 5.726387625559249 6.833829360380135 11.106314717051063 -2 4 -4
137 1 1 0.5897 7.717903893390089 10.753344083198083 5.990002027559452 5 -10 6
356 1 1 0.5897 8.666910726285204 6.898828799967224 6.167662734867936 4 1 -3
29 1 1 0.5897 7.078083702515006 9.302863146479975 14.122059790388844 -8 2 5
577 1 2 -1.1794 8.60686674907853 10.104164173785719 11.709246970660946 4 -1 -3
30 1 1 0.5897 7.344237528794128 8.106855547771508 15.011270093276218 -8 2 5
28 1 2 -1.1794 7.128241060833104 8.347038181888696 14.110203420266735 -8 2 5
601 1 2 -1.1794 7.590292732742646 6.842521518882472 11.7856013371762 7 5 -1
67 1 2 -1.1794 5.712527758035281 10.825864473953832 11.446871056173439 2 -5 -2
602 1 1 0.5897 7.676680308662829 7.690957225866416 12.220355619499937 7 5 -2
69 1 1 0.5897 6.570642187975396 10.41107458037574 11.535516105204167 2 -5 -2
16 1 2 -1.1794 7.303278803921583 11.056909896995304 14.667511920440038 1 3 0
18 1 1 0.5897 7.352809822135931 11.510616760246211 15.508919468412682 1 3 0
680 1 1 0.5897 5.37451209067986 7.529444700968069 13.884977063273405 -5 -7 1
17 1 1 0.5897 7.380700183151231 11.752722115476143 14.014740156611595 1 3 0
765 1 1 0.5897 8.970899921042712 10.251510574064554 14.833486809810804 -6 1 -2
698 1 1 0.5897 5.105724687495255 10.453741451178516 14.565497864346204 -3 -1 -4
126 1 1 0.5897 7.849058906226273 9.742194278876514 19.775293974068813 2 0 4
302 1 1 0.5897 5.865688374331247 8.549221307682423 20.568465240811616 -1 4 5
284 1 1 0.5897 6.956316110201134 7.676340348152037 18.015513281008523 6 3 -3
285 1 1 0.5897 8.40685800039925 8.07016438244917 17.83439164824285 6 3 -3
301 1 2 -1.1794 6.714046874547992 8.310393469849224 20.19494458195791 -1 4 5
124 1 2 -1.1794 8.384059630066268 10.499239173852931 19.536676272768908 2 0 4
296 1 1 0.5897 5.987883554625144 9.546917306903358 16.917518764584308 0 -1 1
283 1 2 -1.1794 7.585505881631709 7.96467058248348 17.35426916987378 6 3 -3
303 1 1 0.5897 6.733912745835285 7.354277147565208 20.236367472679902 -1 4 5
297 1 1 0.5897 5.165225174848056 10.726403229002466 17.390831959196177 0 -1 1
125 1 1 0.5897 9.054777544081295 10.144721065636286 18.952968899496796 2 0 4
295 1 2 -1.1794 5.174805011908777 10.02118546421636 16.743646762869865 0 -1 1
100 1 2 -1.1794 7.117174166983483 13.20816696567178 2.937155249238847 5 -4 3
240 1 1 0.5897 5.496876384441786 13.244097392240553 4.157617344713982 -4 -5 -1
384 1 1 0.5897 7.667579592610452 12.621681151169877 4.352364725265197 -7 -6 -3
102 1 1 0.5897 7.319406013438577 14.141409577757976 2.8705808101484904 5 -4 3
101 1 1 0.5897 6.802788073323601 12.967975269444354 2.0655069875359002 5 -4 3
255 1 1 0.5897 6.218422134815771 16.406462256475052 4.079481369190502 6 5 -7
253 1 2 -1.1794 5.542782912480446 15.980935027553384 4.607456898198581 6 5 -7
437 1 1 0.5897 8.571893042693754 16.36456665893445 3.618171622137763 -4 8 3
382 1 2 -1.1794 7.950314610805762 12.373891244108934 5.232673460658365 -7 -6 -3
383 1 1 0.5897 7.653053646256457 13.092121135198877 5.7912833471792435 -7 -6 -3
436 1 2 -1.1794 8.001872180920806 16.08034626690794 2.903633281827463 -4 8 3
438 1 1 0.5897 7.984404815596891 16.82348929074003 2.3005037572882028 -4 8 3
737 1 1 0.5897 4.937448511015414 15.91563034333183 0.8404448715598483 -1 0 5
254 1 1 0.5897 5.054952033972691 16.704265148545808 5.0012483995945844 6 5 -7
441 1 1 0.5897 6.475916129173978 14.90965181845259 5.738967906369872 1 -2 -2
440 1 1 0.5897 7.970167366588572 15.097172704465683 5.893990060159544 1 -2 -2
657 1 1 0.5897 8.39186869156318 12.973555145705621 9.686560983199607 -1 1 -1
188 1 1 0.5897 6.3080156282588025 14.808699607817083 9.357542686821308 -2 6 3
199 1 2 -1.1794 5.004807134575647 12.69254383710641 7.275194422400259 4 -4 -3
439 1 2 -1.1794 7.216412129431006 14.66234397435664 6.292844288290208 1 -2 -2
187 1 2 -1.1794 6.24470643397182 15.550613155632714 8.756033055311256 -2 6 3
96 1 1 0.5897 8.974851179577593 12.228302832680928 7.665847443422567 -6 0 3
84 1 1 0.5897 8.064340143055468 15.850006335056458 9.225471671423401 -2 -2 -7
150 1 1 0.5897 6.676536165047724 12.306574864483784 7.89763389562306 -1 3 0
148 1 2 -1.1794 7.415521633278373 12.00700571217756 8.427198541498843 -1 3 0
189 1 1 0.5897 6.4996729985517065 15.192592039851393 7.905695502804837 -2 6 3
655 1 2 -1.1794 9.056648750525776 13.332968328829653 10.274054482481967 -2 1 -1
656 1 1 0.5897 9.03676719273653 14.275932396573737 10.11069355046211 -2 1 -1
82 1 2 -1.1794 8.850847624073186 15.988540990710053 9.753206300270683 -2 -2 -7
200 1 1 0.5897 4.964609447020024 12.5746284703493 6.326110491820504 4 -4 -3
83 1 1 0.5897 8.527681688003124 16.060034485908286 10.651390354031475 -2 -2 -7
470 1 1 0.5897 5.800362955376278 12.854352567076155 10.965503842298558 0 -5 0
614 1 1 0.5897 7.265339573687486 14.863010979908701 15.68245214281179 -4 -2 1
24 1 1 0.5897 8.874268534323742 16.184600508520667 12.582541376027079 -6 2 0
748 1 2 -1.1794 7.771862561842508 13.146496628283336 13.11203785701054 0 3 -1
22 1 2 -1.1794 8.026130128751966 16.509427860588072 12.280195489265397 -6 2 0
23 1 1 0.5897 7.425431068628511 16.318814580687224 13.000678165890221 -6 2 0
750 1 1 0.5897 7.943086071286014 13.90474109099734 13.67061265564119 0 3 -1
5 1 1 0.5897 5.591316951644688 14.952700753200912 12.31189896528898 0 -1 -4
613 1 2 -1.1794 7.886877123902462 15.137262828899809 15.00807410734916 -4 -2 2
615 1 1 0.5897 8.57586762646476 15.595887871461453 15.488941710090185 -4 -2 2
749 1 1 0.5897 8.635290592074483 12.883104340713867 12.793645001503924 0 3 -1
4 1 2 -1.1794 5.260824398571138 15.509213075815065 13.017149362842575 0 -1 -4
507 1 1 0.5897 5.198250920544818 14.090114712994957 15.937614656060154 5 -2 -5
471 1 1 0.5897 6.838686856746212 13.610800592212737 11.76664938629229 0 -5 0
469 1 2 -1.1794 6.124797094788317 13.737552667684866 11.141665659863383 0 -5 0
79 1 2 -1.1794 7.86467068607055 15.026848967324401 20.257991875317394 0 -2 -3
151 1 2 -1.1794 6.351984858626053 12.795571447203907 20.487750349642493 0 -6 0
81 1 1 0.5897 7.418504551390682 14.180860900250865 20.218704352209258 0 -2 -3
505 1 2 -1.1794 5.888565628806936 14.35324287004842 16.54633397211345 5 -2 -5
738 1 1 0.5897 6.224446723483932 15.96625136702475 20.81556117991296 -1 0 4
129 1 1 0.5897 6.985737507128902 13.182023916164619 17.261217655018168 -2 -1 -1
153 1 1 0.5897 5.574195624074721 12.964022661845677 21.01966112775734 0 -6 0
80 1 1 0.5897 8.618359320682801 14.87443372305567 20.82810285076275 0 -2 -3
402 1 1 0.5897 8.420535303392791 15.928999385863895 18.67491965697282 -6 1 6
127 1 2 -1.1794 7.592537287784384 12.444035200411133 17.32024079871636 -2 -1 -1
41 1 1 0.5897 5.223902818312026 12.202800225440493 19.05270185895529 2 -3 1
400 1 2 -1.1794 8.73277302301914 16.20320073496973 17.812604134389602 -6 1 6
506 1 1 0.5897 5.43771944541279 14.877049940160031 17.208640107248232 5 -2 -5
736 1 2 -1.1794 5.274618875525139 16.042115353523393 20.724302413994582 -1 0 4
152 1 1 0.5897 6.770738125021935 12.04346950955934 20.906373715966787 0 -6 -1
128 1 1 0.5897 7.521075975012931 12.146569690334276 18.22725697214043 -2 -1 -1
556 1 2 -1.1794 7.588577720877856 17.971040390997562 1.0686987580539913 5 2 3