LAMMPS data file via write_data, version 30 Jul 2021, timestep = 1750000

972 atoms
2 atom types
648 bonds
1 bond types
324 angles
1 angle types

-0.11434720541406129 20.11434820541439 xlo xhi
0.0075320832698704265 19.992468916735287 ylo yhi
-0.12480483807699372 20.824802838078455 zlo zhi

Masses

1 1.008
2 15.999

Pair Coeffs # lj/cut/tip4p/long/omp

1 0 0
2 0.21084 3.1668

Bond Coeffs # harmonic/omp

1 450 0.9572

Angle Coeffs # harmonic/omp

1 55 104.52

Atoms # full

32 11 1 0.5897 -0.021109657258983353 2.3524993078998384 1.4399554016386908 0 0 0
10 4 2 -1.1794 1.1752808908597285 4.208573336927883 3.7197777638662313 0 0 0
16 6 2 -1.1794 4.2056262098759944 3.9707053541610273 3.449453373031839 0 0 0
31 11 2 -1.1794 0.8682947457202537 2.3355550480296996 1.7931426662289516 0 0 0
33 11 1 0.5897 1.4305305108765591 2.4956487862034438 1.0353102240038499 0 0 0
23 8 1 0.5897 2.4971556175969796 0.892172904290648 4.5571649453722545 0 0 0
18 6 1 0.5897 4.224856962193842 3.0283967057105046 3.28189254991969 0 0 0
12 4 1 0.5897 2.070500232330552 4.456643529858084 3.950301216869147 0 0 0
11 4 1 0.5897 1.2768420169187407 3.4491363168802383 3.1459962536630957 0 0 0
17 6 1 0.5897 4.22253091512657 4.3696553855030364 2.5796132625490036 0 0 0
236 79 1 0.5897 0.710150934887537 0.42270810862014824 1.6620753146415908 0 1 0
4 2 2 -1.1794 4.302614030670498 1.3054898449462322 3.4477119579865625 0 0 0
9 3 1 0.5897 5.342507163300172 3.9977975717920753 4.794248684495352 0 0 0
48 16 1 0.5897 7.194521121905545 4.068782469401699 4.103551721434554 0 0 0
46 16 2 -1.1794 7.854736968779177 4.070472058214704 3.410634040949314 0 0 0
47 16 1 0.5897 7.616506930020643 3.3318851730831605 2.8503476183227945 0 0 0
67 23 2 -1.1794 7.2734525107145025 2.069379996917842 1.5388652426910072 0 0 0
68 23 1 0.5897 7.827444375654805 2.3855305007169085 0.8252622549260775 0 0 0
58 20 2 -1.1794 8.739361805265714 0.8114032701782028 4.770829060437376 0 0 0
69 23 1 0.5897 6.389173326354107 2.065824742276058 1.1726708500718726 0 0 0
6 2 1 0.5897 5.083793670015928 1.1523985846982334 3.97911086368934 0 0 0
5 2 1 0.5897 4.330534012024656 0.6224025093952681 2.7777717576490373 0 0 0
34 12 2 -1.1794 5.065611576881285 2.598749108496413 0.026048265906375212 0 0 0
273 91 1 0.5897 7.219028871276116 0.2072623913153519 1.8109259762008358 0 1 0
53 18 1 0.5897 9.789448279099615 4.010101729571961 3.4866937714717854 0 0 0
29 10 1 0.5897 7.092212124053127 0.5948248838867038 5.032918217517615 0 0 0
39 13 1 0.5897 9.8466590301553 2.7210217101176033 -0.08144952500183678 0 0 0
325 109 2 -1.1794 2.446827780804578 2.7560523019818084 7.167268458916582 0 0 0
326 109 1 0.5897 2.0741051065310367 2.1428516788103984 6.533825772637184 0 0 0
327 109 1 0.5897 3.3637876868417425 2.492936867282778 7.244882612445868 0 0 0
360 120 1 0.5897 5.449665124760169 1.676588361851162 6.595155733488491 0 0 0
361 121 2 -1.1794 9.00068103788313 2.7876440271568055 6.903298948045497 0 0 0
342 114 1 0.5897 4.0190173952383015 4.44068376361346 9.586011546083489 0 0 0
356 119 1 0.5897 1.3017633983070311 2.2119061193742398 8.719191213094968 0 0 0
359 120 1 0.5897 5.667617989387654 2.1053472102986857 8.030456136849084 0 0 0
358 120 2 -1.1794 5.104166695135042 2.258438110086795 7.272094400880198 0 0 0
391 131 2 -1.1794 7.363019494477538 1.8274100960091875 8.951944520218763 0 0 0
392 131 1 0.5897 8.005155081815168 2.048746796969516 8.27760334855328 0 0 0
8 3 1 0.5897 5.953691041822808 3.6120327648290442 6.124316350217479 0 0 0
355 119 2 -1.1794 0.5491831218162608 2.0203618574802844 9.27857657690715 0 0 0
362 121 1 0.5897 9.09769270265484 3.6846082896983394 6.583285919151137 0 0 0
59 20 1 0.5897 8.813297659363688 1.6720292134674521 5.183376097701395 0 0 0
24 8 1 0.5897 1.8824033775991738 0.21466825649468985 5.763251255564767 0 0 0
27 9 1 0.5897 2.6495425246028317 4.390839180077971 6.656235121025807 0 0 0
330 110 1 0.5897 4.277431643172058 0.7096638966806976 9.470875415627203 0 0 0
393 131 1 0.5897 7.445238822661772 0.8797947974073601 9.059903856729074 0 0 0
7 3 2 -1.1794 6.094839223931293 4.170735494205832 5.360065518893006 0 0 0
28 10 2 -1.1794 6.169161246735394 0.4638620357571508 5.249344993323264 0 0 0
561 187 1 0.5897 0.5966236121482273 0.18720908629386002 8.983565235758382 0 1 0
363 121 1 0.5897 9.89624565694843 2.4943848378739384 7.070822621765608 0 0 0
22 8 2 -1.1794 1.7764818187160167 0.9680998643795347 5.182395034750967 0 0 0
60 20 1 0.5897 9.105497331820597 0.20449029407014904 5.4140786728733605 0 0 0
328 110 2 -1.1794 4.075633239953844 1.213343285112705 10.259374279673498 0 0 0
371 124 1 0.5897 7.563772069749405 3.401851040351946 9.789380666941625 0 0 0
370 124 2 -1.1794 7.7788760085960345 4.1804672916836285 10.302969616629808 0 0 0
340 114 2 -1.1794 3.5596995261782545 4.001899253818266 10.301946885440804 0 0 0
341 114 1 0.5897 3.867326872573425 3.0961596634967234 10.265221709856263 0 0 0
386 129 1 0.5897 9.081618781410532 4.617326727337756 13.358127385600476 0 0 0
649 217 2 -1.1794 2.6423765783789013 2.9293434377839453 13.7776325338945 0 0 0
650 217 1 0.5897 2.3510050547755457 2.4971990345373576 12.974845126021904 0 0 0
651 217 1 0.5897 2.0460071292720174 2.6072948845491424 14.45344711542851 0 0 0
352 118 2 -1.1794 5.763579980533218 0.8084484799299346 12.353359347488132 0 0 0
372 124 1 0.5897 7.0880611734170635 4.230605155023083 10.96350773992408 0 0 0
384 128 1 0.5897 8.943029082216716 1.3097669475674296 11.285695627966275 0 0 0
332 111 1 0.5897 5.1440899428689315 4.7632745962580945 11.364041231591958 0 0 0
382 128 2 -1.1794 8.439423845843764 0.9974744283025062 12.037317170387249 0 0 0
683 228 1 0.5897 4.436518476774226 2.97349277979394 14.027467517686352 0 0 0
334 112 2 -1.1794 0.9431918475067675 4.337111360374454 10.593896101345058 0 0 0
682 228 2 -1.1794 5.371499641411562 2.9103157683315386 14.222129381206141 0 0 0
350 117 1 0.5897 2.485789362656241 4.710365220335122 13.50832073865963 0 0 0
685 229 2 -1.1794 8.866208307210945 2.5649810260531503 14.215641631825847 0 0 0
346 116 2 -1.1794 1.9148376440920774 0.7800161700219798 11.923248965714718 0 0 0
684 228 1 0.5897 5.7765025799196 3.5832561314905984 13.675035885905661 0 0 0
687 229 1 0.5897 9.697174624986879 2.807365013871256 14.624077137257276 0 0 0
329 110 1 0.5897 4.634708630764619 0.8328257287072373 10.936684927997108 0 0 0
347 116 1 0.5897 1.05372153977579 0.9666704951040022 11.54950281346891 0 0 0
353 118 1 0.5897 6.6608348297886435 0.8482906384077167 12.022623039101504 0 0 0
354 118 1 0.5897 5.766301748724086 1.3767532236459752 13.123533744011059 0 0 0
686 229 1 0.5897 8.283811581896625 2.3747792716086003 14.950953050491044 0 0 0
383 128 1 0.5897 8.733803512484242 1.542960513780982 12.766653115735178 0 0 0
348 116 1 0.5897 2.5145419011500514 0.8252077369052799 11.178701974340681 0 0 0
331 111 2 -1.1794 5.806331505410855 4.9025484424406605 12.04086364953162 0 0 0
336 112 1 0.5897 1.8883385467539755 4.329569374023089 10.443196373599196 0 0 0
679 227 2 -1.1794 0.4922918346651961 1.881041704859836 15.255827879282286 0 0 0
335 112 1 0.5897 0.6648591757310811 3.4383934910380805 10.41724042936111 0 0 0
377 126 1 0.5897 9.762932501708363 3.8176633016185844 10.395562919523003 0 0 0
652 218 2 -1.1794 4.21284314177047 1.2504890191960434 17.170889400863995 0 0 0
653 218 1 0.5897 3.3502069896418156 1.014942542078537 17.512139736041824 0 0 0
666 222 1 0.5897 3.9140931099538916 2.926516887537068 17.206138689913608 0 0 0
664 222 2 -1.1794 3.8955071275430226 3.8703010715197257 17.36530253729262 0 0 0
665 222 1 0.5897 2.970822848603942 4.107309741693432 17.29548796339428 0 0 0
671 224 1 0.5897 1.7168128531789266 1.6185248813434112 18.94414114176877 0 0 0
656 219 1 0.5897 4.952901479882792 4.513035618400397 18.635709129157807 0 0 0
670 224 2 -1.1794 1.627540655048524 0.8049870460114654 18.44764620984959 0 0 0
657 219 1 0.5897 6.453888941369479 4.365703645084695 18.765464369396927 0 0 0
35 12 1 0.5897 5.260748671489043 1.843007356246655 20.42153335505433 0 0 -1
654 218 1 0.5897 4.459508047191698 0.5131636177564519 16.612600110551124 0 0 0
696 232 1 0.5897 7.870112340758882 4.667774688047491 17.356239498609813 0 0 0
681 227 1 0.5897 0.30512591839319964 2.2577925797055984 16.115543595161736 0 0 0
677 226 1 0.5897 5.278427102534683 0.703741422623904 18.468206846800946 0 0 0
1 1 2 -1.1794 2.3969270215842458 2.95852870606409 20.354270080249975 0 0 -1
708 236 1 0.5897 7.6931695315475634 1.0122734883010012 18.68986231765465 0 0 0
672 224 1 0.5897 0.7311253043410799 0.5165089109105272 18.618718181240503 0 0 0
38 13 1 0.5897 8.731838970722261 2.3184252354367154 19.926551401318065 0 0 -1
715 239 2 -1.1794 7.017493090315722 1.7992447927983763 16.18544857251287 0 0 0
655 219 2 -1.1794 5.682508269051139 4.691893193991815 19.228798109233118 0 0 0
706 236 2 -1.1794 8.633941099288213 1.0136220453178637 18.865981746114045 0 0 0
694 232 2 -1.1794 8.015768379544161 3.8456675806494225 17.824457016761222 0 0 0
695 232 1 0.5897 7.603854132943179 3.179593887300018 17.274092104816493 0 0 0
658 220 2 -1.1794 1.0670264427185343 3.9927739491111818 17.341052816955173 0 0 0
716 239 1 0.5897 7.077942611899896 0.8478457705804757 16.0982971219032 0 0 0
676 226 2 -1.1794 5.822920968688018 0.7039135866063333 19.255338285593936 0 0 0
707 236 1 0.5897 8.791725140671964 0.19334182568601932 19.33349567461473 0 0 0
659 220 1 0.5897 0.549196236516035 4.0970668797436405 18.13918858808697 0 0 0
36 12 1 0.5897 5.305652196251494 3.356263403773783 20.441953707789605 0 0 -1
662 221 1 0.5897 4.460539438877607 4.947705566272415 16.118681286558168 0 0 0
710 237 1 0.5897 8.573398039883822 4.79517456502478 20.613484223275947 0 0 0
37 13 2 -1.1794 8.940214820997625 2.9242997588660735 20.637671234100555 0 0 -1
2 1 1 0.5897 2.310706250173324 3.9106251717443166 20.40419849723126 0 0 -1
702 234 1 0.5897 9.835023085605515 3.933056978177717 17.492112712598974 0 0 0
660 220 1 0.5897 0.8938303314315936 4.787925515673306 16.83705850594855 0 0 0
3 1 1 0.5897 3.318350347865271 2.790348106042308 20.551154318706452 0 0 -1
717 239 1 0.5897 6.210030878609616 2.0314563587918846 15.727049715883975 0 0 0
57 19 1 0.5897 7.564765247418515 6.136535478483225 1.9581766481391107 0 0 0
176 59 1 0.5897 7.490409916173153 8.462054791625837 1.8020337867244012 0 0 0
15 5 1 0.5897 4.283873220259542 6.266600697923562 1.9207570675968206 0 0 0
126 42 1 0.5897 4.529771514962523 9.494286490166225 3.023893733155929 0 0 0
14 5 1 0.5897 3.9732778869188277 5.788308835469928 0.5185755810487476 0 0 0
140 47 1 0.5897 1.2056070029117614 9.331541863304803 2.760624200506024 0 0 0
110 37 1 0.5897 2.159487958986398 9.41235006667706 0.557241317235197 0 0 0
142 48 2 -1.1794 5.394982389170611 9.140624638953202 0.04587781888183373 0 0 0
19 7 2 -1.1794 0.6206555772474485 5.961930568779389 1.6298845564020923 0 0 0
112 38 2 -1.1794 4.139141777330378 7.630889253932032 3.014803876543423 0 0 0
130 44 2 -1.1794 1.8010942903371758 7.211164804406947 4.53401510479759 0 0 0
177 59 1 0.5897 8.297623804620825 9.576859875113277 1.1715209963926958 0 0 0
114 38 1 0.5897 3.371615918405758 7.696227933891327 3.582865019426294 0 0 0
139 47 2 -1.1794 0.935059014287364 8.846308434777212 1.9812237660126528 0 0 0
711 237 1 0.5897 8.073541374669844 6.166531286308912 0.06598898224891508 0 0 1
113 38 1 0.5897 4.861681202275091 7.430693681119481 3.609721656784897 0 0 0
13 5 2 -1.1794 4.571137226153333 5.644920503442084 1.252049827030914 0 0 0
149 50 1 0.5897 9.759791843214293 7.914947353296739 3.339535623279036 0 0 0
143 48 1 0.5897 6.183646322497839 9.27242794041279 0.5718961339172625 0 0 0
175 59 2 -1.1794 7.716783757046452 9.386118367589752 1.9079277768649137 0 0 0
55 19 2 -1.1794 7.171342382182948 6.7424559883447746 1.3302686983732064 0 0 0
56 19 1 0.5897 6.296761117054762 6.387960731541918 1.170506174516958 0 0 0
674 225 1 0.5897 1.8175746754435147 6.079032318033682 0.199453305743577 0 0 1
141 47 1 0.5897 0.9898025266663095 7.926311927568194 2.2400786250664413 0 0 0
20 7 1 0.5897 0.8599270325020325 5.275785915720116 2.252911784795856 0 0 0
132 44 1 0.5897 0.8523915066317542 7.213849419963083 4.660542858603107 0 0 0
166 56 2 -1.1794 8.539707820409157 7.530497120530045 4.8072271204301 0 0 0
111 37 1 0.5897 3.532169488595179 9.572299369973498 -0.06052455285558267 0 0 0
470 157 1 0.5897 8.234257536696479 8.900343147238301 7.741692828369359 0 0 0
343 115 2 -1.1794 0.9148118160925482 6.283824932317998 8.555932638068004 0 0 0
137 46 1 0.5897 5.86277436408113 6.028011577124308 5.354489322102585 0 0 0
381 127 1 0.5897 7.570610547517823 5.373626148318083 8.911385515274734 0 0 0
437 146 1 0.5897 3.796132465244488 7.547342173138253 9.372165102513895 0 0 0
466 156 2 -1.1794 5.104777884774584 8.732194078755517 7.510515672163577 0 0 0
345 115 1 0.5897 0.8490274441308869 7.116879706290566 9.02286290747628 0 0 0
339 113 1 0.5897 4.426312971160772 5.158731188706468 7.5067884692683196 0 0 0
131 44 1 0.5897 2.1236107715859305 6.554174578544841 5.150921098445447 0 0 0
62 21 1 0.5897 8.676578400089445 5.6843484147442185 6.917328156767837 0 0 0
436 146 2 -1.1794 3.602865059964169 8.075390459986682 10.146731723558977 0 0 0
435 145 1 0.5897 1.929504439110251 8.835291257741314 6.178600545816462 0 0 0
464 155 1 0.5897 1.3364853068036737 9.042327505274715 8.318039687718391 0 0 0
463 155 2 -1.1794 0.5735971376653637 9.135720072223748 8.88840703432736 0 0 0
26 9 1 0.5897 2.374410214624551 5.713377389257907 7.339867722427469 0 0 0
499 167 2 -1.1794 7.429651941051037 8.845681370594203 9.332066048670821 0 0 0
61 21 2 -1.1794 9.265250275716898 5.427560538101465 6.207689349890706 0 0 0
501 167 1 0.5897 6.626080266133206 8.85175462091997 8.812179485853559 0 0 0
25 9 2 -1.1794 2.6705182586552305 5.336844226668338 6.511239993631433 0 0 0
467 156 1 0.5897 5.294596129724043 8.098372404230416 6.818817473897829 0 0 0
468 156 1 0.5897 4.17139528237632 8.920681593597228 7.413776932608524 0 0 0
500 167 1 0.5897 7.403172545697223 9.666227735969665 9.8243292365725 0 0 0
379 127 2 -1.1794 7.43838817570434 6.096095761475356 8.297550910756307 0 0 0
344 115 1 0.5897 0.9035268266525354 5.620316131837775 9.245726049870266 0 0 0
168 56 1 0.5897 8.622344575452926 8.204003762816354 5.4823392200176215 0 0 0
380 127 1 0.5897 7.4908533854701425 6.883817105547448 8.838868114459395 0 0 0
337 113 2 -1.1794 4.824779037252003 5.354142849026795 8.35477279040817 0 0 0
469 157 2 -1.1794 8.661407516201029 9.197118032877619 6.938266484409128 0 0 0
433 145 2 -1.1794 2.4500107965221054 9.241888601622337 6.871324716350442 0 0 0
338 113 1 0.5897 5.7290107190576816 5.588894549018813 8.146629412632176 0 0 0
438 146 1 0.5897 3.6900456300378535 8.980681424658876 9.848060830003504 0 0 0
471 157 1 0.5897 9.59053774466917 9.016067767699514 7.0794648069387955 0 0 0
167 56 1 0.5897 8.712321932517789 6.708213315389842 5.265886703214797 0 0 0
136 46 2 -1.1794 5.859316899907953 6.979416596839527 5.460505050818876 0 0 0
117 39 1 0.5897 5.7793207139590255 9.94887376663299 6.183135470361 0 0 0
138 46 1 0.5897 6.759979002223862 7.244876905218982 5.274981617951688 0 0 0
705 235 1 0.5897 8.073713666890693 5.4756105118265745 15.386976851647272 0 0 0
490 164 2 -1.1794 8.546565653389655 7.469087756755636 12.001649531137156 0 0 0
790 264 2 -1.1794 5.271016805516344 9.064270119828095 14.182500121328909 0 0 0
794 265 1 0.5897 8.98696814022509 8.887814159775909 13.268231969363837 0 0 0
759 253 1 0.5897 2.1594977688038144 8.519251776067925 13.472844354422472 0 0 0
668 223 1 0.5897 1.509863548674428 5.817309640427165 14.856428289933865 0 0 0
454 152 2 -1.1794 1.5862766510975186 7.446086015984597 11.80799331635381 0 0 0
455 152 1 0.5897 2.2728363186728124 7.705659977577958 11.193714902474346 0 0 0
456 152 1 0.5897 1.9766353367356095 6.736681715665286 12.318499272004372 0 0 0
791 264 1 0.5897 5.851506217510353 8.94754798602411 14.934472021456703 0 0 0
491 164 1 0.5897 9.050148867881383 7.528628411550142 11.189923649235494 0 0 0
758 253 1 0.5897 2.6316795200877805 9.869189328189327 13.96970908482055 0 0 0
462 154 1 0.5897 4.9187905094659286 7.740297138022466 11.269171475446807 0 0 0
792 264 1 0.5897 4.390266237480453 8.949802667836368 14.539202137530793 0 0 0
461 154 1 0.5897 5.4972914245738655 8.169174121903907 12.600668089352313 0 0 0
757 253 2 -1.1794 2.4876586454949043 8.966202787145216 14.253006379276854 0 0 0
387 129 1 0.5897 9.072211714902627 6.12809195238871 13.258832049775105 0 0 0
793 265 2 -1.1794 9.044506796879844 9.337724869858206 14.111078697846713 0 0 0
460 154 2 -1.1794 5.706605563657544 7.674179328797404 11.808643938896989 0 0 0
492 164 1 0.5897 7.6328155694794475 7.520517964951529 11.721496246750885 0 0 0
349 117 2 -1.1794 2.6552820631672294 5.651505099689278 13.552414947117422 0 0 0
351 117 1 0.5897 3.364446492073237 5.738021564065253 14.189318357542474 0 0 0
385 129 2 -1.1794 9.081043187909254 5.411173524579598 13.893020604911415 0 0 0
333 111 1 0.5897 5.906282000413538 5.8535030801427 12.086789309310094 0 0 0
824 275 1 0.5897 7.921347339087077 8.889222783590668 15.253459412131436 0 0 0
669 223 1 0.5897 0.8823467179683259 7.033288858089435 15.504203096341188 0 0 0
667 223 2 -1.1794 0.7989579826050066 6.081795443563403 15.440159285641395 0 0 0
787 263 2 -1.1794 0.38275553811598856 8.82020407353102 16.299374911503197 0 0 0
823 275 2 -1.1794 7.35330760075878 8.642497303967215 15.983208262783005 0 0 0
760 254 2 -1.1794 4.324354857359138 7.948002449990046 17.136804632983 0 0 0
780 260 1 0.5897 2.54898605384276 7.955855819394078 18.18048447743876 0 0 0
778 260 2 -1.1794 1.797845348720572 7.790458786724942 18.750128394145253 0 0 0
779 260 1 0.5897 1.8502442460843427 8.471999899543965 19.42019696519203 0 0 0
761 254 1 0.5897 4.23069396529889 8.892409259589252 17.26225629741378 0 0 0
675 225 1 0.5897 2.221481156201045 6.431540787268829 19.733424737668496 0 0 0
825 275 1 0.5897 7.296911276648619 7.688257085713037 15.931542824793851 0 0 0
709 237 2 -1.1794 8.710957004312885 5.728602057841543 20.451650784474513 0 0 0
814 272 2 -1.1794 9.198072046497128 7.854100146608132 18.80017692369843 0 0 0
788 263 1 0.5897 0.5654400148317247 9.208584220094643 17.15487848876391 0 0 0
816 272 1 0.5897 9.183811331816901 8.624795184525647 19.36766978681243 0 0 0
704 235 1 0.5897 6.587652394593028 5.663863677523167 15.605330649502294 0 0 0
762 254 1 0.5897 5.024627872968991 7.694311005031417 17.737915042096763 0 0 0
784 262 2 -1.1794 6.375255928568351 7.4461583972918985 18.882547585339616 0 0 0
785 262 1 0.5897 6.284473411384285 6.523555023199352 19.12120878259771 0 0 0
815 272 1 0.5897 8.919373783605332 7.134038699984064 19.365950733583002 0 0 0
786 262 1 0.5897 7.296436746726034 7.542028398560535 18.6410777072923 0 0 0
663 221 1 0.5897 4.627570592840787 6.45251186622566 16.116076153961046 0 0 0
703 235 2 -1.1794 7.438840471078573 5.824817054065627 16.012317358834345 0 0 0
858 286 1 0.5897 0.09451618284744967 7.322807308097432 18.7959823739281 1 0 0
145 49 2 -1.1794 9.313848204241362 9.980256782286853 20.5648336937431 0 0 -1
109 37 2 -1.1794 2.599790120009895 9.575911576765982 20.672924696987657 0 0 -1
673 225 2 -1.1794 2.415178813545764 5.823197273668383 20.44657543224038 0 0 0
144 48 1 0.5897 5.620743486551726 8.426655807045154 20.399245370853343 0 0 -1
661 221 2 -1.1794 4.798611617503432 5.670924108302242 15.590565787148439 0 0 0
789 263 1 0.5897 1.0730966995887414 9.1592483546029 15.729653854454375 0 0 0
240 80 1 0.5897 2.598428222435795 13.743520642347168 4.504946773684793 0 0 0
120 40 1 0.5897 1.4799690861182628 11.511297510742438 3.490045947918966 0 0 0
123 41 1 0.5897 4.699983067031885 12.506766538017274 0.7894946178791948 0 0 0
154 52 2 -1.1794 8.528253583490473 10.877377573263265 4.037780961935154 0 0 0
127 43 2 -1.1794 1.0766351443742705 12.744687614762354 2.0517775030935894 0 0 0
783 261 1 0.5897 1.9753258783336372 12.482544274778979 0.6839304084174712 0 0 1
222 74 1 0.5897 4.67949467877381 13.577565595305487 2.7417996021578555 0 0 0
122 41 1 0.5897 5.187808866039589 11.661295397105462 1.9466036956583008 0 0 0
125 42 1 0.5897 5.060058178486778 10.541420324805625 3.9799988200559326 0 0 0
276 92 1 0.5897 9.506331632289468 14.500092682818151 4.07823904090412 0 0 0
124 42 2 -1.1794 4.520447130473197 10.435807757364879 3.196622989461722 0 0 0
118 40 2 -1.1794 1.7475945357545797 10.72423005195445 3.964579833456681 0 0 0
220 74 2 -1.1794 4.32162416444471 14.012940577038423 3.5153906568543873 0 0 0
129 43 1 0.5897 1.0509306154245306 13.698545988631247 2.1278532487516455 0 0 0
119 40 1 0.5897 2.6431650377356317 10.559221186599778 3.669957229198604 0 0 0
155 52 1 0.5897 8.204505307030338 10.21576571102694 3.4264919223937547 0 0 0
165 55 1 0.5897 8.051449428918517 12.367548906814799 2.922925755353616 0 0 0
121 41 2 -1.1794 5.376540950580139 12.466920490237575 1.465303745610773 0 0 0
156 52 1 0.5897 9.473297936540781 10.900362614043038 3.8881574027967885 0 0 0
163 55 2 -1.1794 7.80961349177633 13.096080379675145 2.351092026978698 0 0 0
164 55 1 0.5897 6.913227031668144 12.899995477101573 2.078851815959912 0 0 0
819 273 1 0.5897 8.719237886108212 13.077429689142855 0.5892002120569557 0 0 1
188 63 1 0.5897 0.23235678619507394 10.587677085151578 4.934891970500078 1 0 0
245 82 1 0.5897 6.109608452108307 13.803825231549792 5.009268064868676 0 0 0
274 92 2 -1.1794 8.841234213621526 14.757376494350602 4.716615401865246 0 0 0
275 92 1 0.5897 8.22268421423282 14.026920130355233 4.726257323225449 0 0 0
128 43 1 0.5897 0.18234055777749347 12.498483991413185 1.8157675267715618 0 0 0
221 74 1 0.5897 4.377418734538176 14.946860147014071 3.3126863520654695 0 0 0
133 45 2 -1.1794 2.772267782621722 11.92557552453889 7.05013553419674 0 0 0
134 45 1 0.5897 2.206339057272569 12.151832629779065 7.788101041783734 0 0 0
135 45 1 0.5897 3.645392092896583 12.208295157114675 7.321830366652098 0 0 0
445 149 2 -1.1794 5.044770728029631 12.659606841280254 8.483537448267969 0 0 0
453 151 1 0.5897 1.2017624015762165 12.257483475864083 9.84312773260168 0 0 0
317 106 1 0.5897 0.24352924578653384 13.771220706382133 5.464568358796587 1 0 0
170 57 1 0.5897 9.2455922853391 12.12831375306259 5.6907404187065636 0 0 0
115 39 2 -1.1794 6.022718299760095 10.743667750210918 5.7084105331581885 0 0 0
447 149 1 0.5897 5.953114512006165 12.904936588115161 8.308045327742589 0 0 0
169 57 2 -1.1794 9.526984879682058 11.996803007625118 6.596035307271952 0 0 0
239 80 1 0.5897 2.21850886808068 13.235147589715934 5.8792604828313175 0 0 0
446 149 1 0.5897 4.692961621174236 13.390190437565288 8.992187455602993 0 0 0
487 163 2 -1.1794 7.846812441319419 12.91048250067358 8.569126282739044 0 0 0
244 82 2 -1.1794 6.537323838966954 13.465507232256378 5.7958397561661315 0 0 0
489 163 1 0.5897 7.765061114953603 13.85083318123661 8.728652386396304 0 0 0
451 151 2 -1.1794 0.9233118161585276 12.768031656110713 9.08290189669118 0 0 0
575 192 1 0.5897 5.676734499777546 14.768653376939028 7.052310453780832 0 0 0
573 191 1 0.5897 0.7322040990773698 14.561108932528901 9.339453568762393 0 0 0
488 163 1 0.5897 8.364904266236442 12.847333472197857 7.766865269022679 0 0 0
171 57 1 0.5897 9.255366104793811 11.102820079741328 6.804329601754227 0 0 0
450 150 1 0.5897 4.455353302490667 11.571355990213839 9.683231204783857 0 0 0
544 182 2 -1.1794 3.8780028713765122 14.526237473046443 10.21549501896272 0 0 0
480 160 1 0.5897 7.904045618817435 11.86532354146148 9.964946219392198 0 0 0
443 148 1 0.5897 1.075418773893543 10.128511910255469 10.225254397287516 0 0 0
238 80 2 -1.1794 2.100483406979709 13.978479766990718 5.287832652276624 0 0 0
116 39 1 0.5897 6.927250022565133 10.592090351807876 5.434712173489258 0 0 0
246 82 1 0.5897 6.120837029242784 12.617445102953896 5.9496772934707565 0 0 0
452 151 1 0.5897 0.05288911151647113 12.430066713861185 8.872747380938529 0 0 0
434 145 1 0.5897 2.4828754130256647 10.168784885964584 6.63437877042387 0 0 0
448 150 2 -1.1794 4.16514998412932 10.930652817144866 10.332459319939518 0 0 0
457 153 2 -1.1794 2.4372204129163237 11.756853721186333 13.448357480125468 0 0 0
458 153 1 0.5897 1.6934466464534137 11.901918035490972 14.032992043742668 0 0 0
459 153 1 0.5897 3.188318809865162 12.11322701683788 13.922657721824777 0 0 0
562 188 2 -1.1794 1.7307166373267855 13.987210433739298 11.87010386923849 0 0 0
563 188 1 0.5897 2.010281797564889 13.110414901307145 12.133621822214739 0 0 0
441 147 1 0.5897 5.819005346334698 10.73263227540999 13.233449442102204 0 0 0
545 182 1 0.5897 3.055613570039542 14.355526033116794 10.67440318366029 0 0 0
570 190 1 0.5897 6.604648162508364 14.265561399167273 12.241349079786673 0 0 0
493 165 2 -1.1794 9.253729910307019 12.202783903699224 13.751248413943008 0 0 0
769 257 2 -1.1794 4.325539306505909 12.728018895449 15.196455296922247 0 0 0
494 165 1 0.5897 8.549046006306934 12.30162568376494 14.391325960926949 0 0 0
811 271 2 -1.1794 7.098962059138932 12.717970345284714 15.488176113189777 0 0 0
449 150 1 0.5897 4.747352878389649 11.066011495543199 11.07996977040903 0 0 0
546 182 1 0.5897 4.557111479701384 14.350576417038672 10.86665439385793 0 0 0
599 200 1 0.5897 8.87370901513157 13.636059678624527 12.570122596948057 0 0 0
569 190 1 0.5897 5.600411348061801 13.14794667787425 12.426880080871085 0 0 0
440 147 1 0.5897 6.56862226279587 11.380618391037446 12.089018950794115 0 0 0
512 171 1 0.5897 -0.013362525549716509 10.983077228444602 11.981524662216298 1 0 0
598 200 2 -1.1794 8.517011838250072 14.264674816968537 11.942571464073385 0 0 0
568 190 2 -1.1794 5.673379448463973 14.062608908266066 12.154030791957153 0 0 0
439 147 2 -1.1794 5.7235988637901665 11.383807461108631 12.538425755435645 0 0 0
770 257 1 0.5897 5.276285201297486 12.82808445693056 15.24268745443536 0 0 0
478 160 2 -1.1794 7.925194546493055 11.166568053232163 10.618811991320815 0 0 0
795 265 1 0.5897 9.162757389111096 10.259987166857043 13.883409858178048 0 0 0
581 194 1 0.5897 9.813842384402435 13.862058083717988 10.513998837958841 0 0 0
442 148 2 -1.1794 1.4028328154804464 10.740039067470873 10.884821409429456 0 0 0
479 160 1 0.5897 8.841622297253334 10.891863820189505 10.646981370833677 0 0 0
444 148 1 0.5897 2.3500655557899206 10.755515343446335 10.748494456275452 0 0 0
564 188 1 0.5897 2.1729187001772585 14.574589269738937 12.48297763524072 0 0 0
817 273 2 -1.1794 9.270792872166238 12.77791766207614 20.816202994095544 0 0 0
768 256 1 0.5897 0.9044367800149451 11.270612372696325 17.266849407582644 0 0 0
870 290 1 0.5897 4.451358073236975 14.226628903920485 17.743115914543203 0 0 0
888 296 1 0.5897 1.706347730056045 13.58304343309864 19.398298818604623 0 0 0
774 258 1 0.5897 4.0439149867377875 11.27050665352813 16.531107032877102 0 0 0
886 296 2 -1.1794 1.590797666712348 14.251466388654222 18.722970680691738 0 0 0
869 290 1 0.5897 2.9495442235399234 14.358858218357447 17.606818099227013 0 0 0
893 298 1 0.5897 6.277633752135003 14.525737674279261 18.9143442190875 0 0 0
766 256 2 -1.1794 1.3319971345444332 10.736209532808042 17.9359820104019 0 0 0
771 257 1 0.5897 3.9837716308937745 13.416897058541098 15.76644410307283 0 0 0
813 271 1 0.5897 7.570475675709276 12.112952735809385 16.060736549374994 0 0 0
775 259 2 -1.1794 0.5230100075510014 12.429204640894485 15.917313952892414 0 0 0
765 255 1 0.5897 5.495997078457169 10.688902711262687 19.85988409974879 0 0 0
764 255 1 0.5897 5.28532605406016 11.343153702095787 18.51113742132445 0 0 0
922 308 2 -1.1794 8.296001268915782 14.179512765692026 18.74603625204707 0 0 0
767 256 1 0.5897 0.7512191876342853 10.791839662319584 18.69469424025489 0 0 0
777 259 1 0.5897 0.6400182816523274 13.369652159891967 16.052319235649662 0 0 0
772 258 2 -1.1794 4.075364363784272 10.681116876624493 17.284634894827978 0 0 0
146 49 1 0.5897 9.560404221799239 10.90418323909947 20.609087696362334 0 0 -1
763 255 2 -1.1794 5.852712072830682 11.36316258899171 19.281668397321575 0 0 0
818 273 1 0.5897 8.930057563945665 13.236507573284268 20.048286240808036 0 0 0
894 298 1 0.5897 5.536819670022275 13.295003966487561 19.39240999757415 0 0 0
802 268 2 -1.1794 8.071848676239144 10.903498149805827 17.369079265716117 0 0 0
803 268 1 0.5897 7.542123233125178 11.095048978737807 18.14287479526541 0 0 0
892 298 2 -1.1794 5.416444996520925 14.226068617436527 19.205306942267995 0 0 0
773 258 1 0.5897 3.1855548679825327 10.694387796384094 17.636943338843555 0 0 0
924 308 1 0.5897 8.981504210850655 14.242768535086052 18.081127585532727 0 0 0
868 290 2 -1.1794 3.7698299969546967 14.536250924611783 17.14666900861754 0 0 0
782 261 1 0.5897 2.562267631400053 11.420435018674965 20.728372539631394 0 0 0
810 270 1 0.5897 9.876377500507049 10.737064835908585 17.64532741255393 0 0 0
781 261 2 -1.1794 2.4281823811313137 12.365684556969054 20.798500603383943 0 0 0
965 322 1 0.5897 -0.10726370802528606 14.057768007271966 19.260651314061512 1 0 0
923 308 1 0.5897 8.546048493029716 14.821725034800185 19.410291820405362 0 0 0
804 268 1 0.5897 7.748939134232769 10.056813499405834 17.06070658440298 0 0 0
812 271 1 0.5897 7.341575364113565 13.587745375417558 15.805956953242468 0 0 0
231 77 1 0.5897 5.418483425382949 19.130204934684848 1.3025778687531038 0 0 0
271 91 2 -1.1794 7.259946094540857 19.308021374358077 1.4464226480445885 0 0 0
285 95 1 0.5897 7.6872323561599565 15.156140940979576 2.485048267764447 0 0 0
230 77 1 0.5897 3.9369268051580786 19.087922090236006 0.9948704752161728 0 0 0
232 78 2 -1.1794 4.199445615823446 17.310252292637074 3.7747230758443764 0 0 0
247 83 2 -1.1794 1.1264468859532357 15.498368932912685 1.9210832763721792 0 0 0
229 77 2 -1.1794 4.557662066826368 19.156710773914455 1.720125726809738 0 0 0
264 88 1 0.5897 9.117559621224975 17.465737779751898 3.7829425379542037 0 0 0
234 78 1 0.5897 3.2548986891608274 17.442229509244704 3.855299456220876 0 0 0
233 78 1 0.5897 4.436021277683022 17.75887860697521 2.9630035809355357 0 0 0
235 79 2 -1.1794 0.744648697183126 19.451662312240174 1.6262205680392832 0 0 0
226 76 2 -1.1794 1.610666107605463 17.73757787863594 3.915911205174069 0 0 0
227 76 1 0.5897 1.359860455127237 18.30936123166981 3.190443844951075 0 0 0
248 83 1 0.5897 1.5278359434082667 15.98088450702215 2.643712644304374 0 0 0