LAMMPS data file via write_data, version 30 Jul 2021, timestep = 17250000

1008 atoms
2 atom types
672 bonds
1 bond types
336 angles
1 angle types

-3.2946109416290383 14.904609941184486 xlo xhi
-0.3139380076117071 22.893937007615122 ylo yhi
-0.060191241311985166 19.290189241311552 zlo zhi
-0.5623849752513966 -6.825218269285473 0.2617496545017615 xy xz yz

Masses

1 1.008
2 15.999

Pair Coeffs # lj/cut/tip4p/long/omp

1 0 0
2 0.21084 3.1668

Bond Coeffs # harmonic/omp

1 450 0.9572

Angle Coeffs # harmonic/omp

1 55 104.52

Atoms # full

122 41 1 0.5897 -2.7319022575877785 2.014377672323107 1.4574007192137168 1 0 0
123 41 1 0.5897 -3.5347521443477183 2.4646995162746825 2.6592881213697788 1 0 0
56 19 1 0.5897 -1.4119050193508829 3.540390528575494 2.904538330146388 0 0 0
602 201 1 0.5897 -0.6414682780818941 5.29117791111691 0.5092041520396443 1 0 1
86 29 1 0.5897 -2.4850654024015455 0.9793833655710216 3.8632930894037325 1 0 0
55 19 2 -1.1794 -0.8363577578401586 4.083959838657528 3.442612299148904 0 0 0
121 41 2 -1.1794 -2.647393153626187 2.2323319744177628 2.3855748008548576 1 0 0
101 34 1 0.5897 -2.867489657270709 4.536877728489956 -0.03392342312461377 1 0 0
158 53 1 0.5897 -4.573178137089675 4.207981932442162 4.270821823794043 1 0 0
57 19 1 0.5897 -0.07020321853714062 4.2416093239493184 2.890873007554748 0 0 0
601 201 2 -1.1794 -1.007631627355893 4.528434222251313 0.06152738624605848 1 0 1
157 53 2 -1.1794 -4.0221377812043855 4.848322357019269 4.720912095345045 1 0 0
603 201 1 0.5897 -0.3401420157623867 3.849312019976434 0.15940772099729125 1 0 1
33 11 1 0.5897 0.4400273209471699 0.3645235722218926 1.968342179007513 0 0 0
482 161 1 0.5897 -1.3943951573411244 -0.13795577450990693 0.5456662097025062 1 1 0
134 45 1 0.5897 -2.3592185593817767 2.308205867867202 5.881603391159926 1 0 0
98 33 1 0.5897 -4.422694947715568 5.167462408414547 8.555338654633612 1 0 0
69 23 1 0.5897 -2.793775483648374 0.989994670389907 8.486881473042487 0 0 0
124 42 2 -1.1794 -5.0641052915050935 2.2834892625897636 7.2430557335746135 1 0 0
159 53 1 0.5897 -3.3505275479430665 4.323141360549689 5.156141181881698 1 0 0
125 42 1 0.5897 -5.6463027010285565 3.0074724493437 7.012315899285292 1 0 0
133 45 2 -1.1794 -2.6423957343128253 3.054192732672992 6.4103783525811 1 0 0
126 42 1 0.5897 -4.184388616901778 2.617781489241094 7.067997596607082 1 0 0
135 45 1 0.5897 -1.8428704183513718 3.5582918680460165 6.561797748851724 1 0 0
669 223 1 0.5897 -5.069889393549093 2.0181366223625643 9.545179978867882 1 0 0
67 23 2 -1.1794 -2.551327366788304 0.23635751376056813 7.948848470379435 0 0 0
90 30 1 0.5897 -5.359409165637722 1.060648623025341 5.830944804095708 1 0 0
87 29 1 0.5897 -3.5177249140708238 0.6539153770037124 4.921386052899955 1 0 0
524 175 1 0.5897 -2.9740147917771367 3.2122121077511925 9.477462313921531 0 0 0
97 33 2 -1.1794 -4.527775043048717 4.533192546148339 9.26446972917071 1 0 0
85 29 2 -1.1794 -2.5828988581528183 0.8219232619803458 4.802304888983238 1 0 0
561 187 1 0.5897 -4.796256143157432 3.900572892746818 12.9067093861127 0 0 0
559 187 2 -1.1794 -4.095954856210428 4.401971341238692 13.324366559313294 0 0 0
625 209 2 -1.1794 -6.2114284305651815 2.8974110453822117 12.370844062181991 1 0 0
627 209 1 0.5897 -7.134092919815805 3.1491619135820414 12.411190666380602 1 0 0
99 33 1 0.5897 -4.513754691613441 5.061263297506473 10.062680604940716 1 0 0
662 221 1 0.5897 -7.800366603559751 4.627294585154585 13.817026857145981 1 0 0
626 209 1 0.5897 -6.1245318404339475 2.1992442023531797 13.019889363862337 1 0 0
668 223 1 0.5897 -5.665259672361689 2.1318717132357827 10.932398452307838 1 0 0
987 329 1 0.5897 -3.268599105883384 -0.12070460638919167 11.706039581479825 1 1 0
667 223 2 -1.1794 -5.544433153633223 1.5172423114879756 10.208611972117797 1 0 0
661 221 2 -1.1794 -7.220483250765192 5.158458079120035 14.362766362293053 1 0 0
523 175 2 -1.1794 -2.523615459189407 2.401548941111604 9.7147198398281 0 0 0
986 329 1 0.5897 -4.48968185986033 0.10280656702069324 10.839453486664743 1 1 0
606 202 1 0.5897 -6.582253826146374 4.803646454715726 9.758510250316915 1 0 0
589 197 2 -1.1794 -5.894872026225789 1.0738219799199236 14.432481202755664 1 0 0
593 198 1 0.5897 -7.8190522928826365 0.7220198203885864 14.354591989140976 1 0 0
590 197 1 0.5897 -5.726387370792116 1.6446427681988092 15.182134904212614 1 0 0
571 191 2 -1.1794 -6.115103246531346 0.1513036497061549 17.756146017466357 0 0 0
637 213 2 -1.1794 -5.821541393405696 3.3260444133331317 16.144011128723193 1 0 0
20 7 1 0.5897 -6.258224917854269 1.9319333405300383 18.718818042183237 0 0 -1
639 213 1 0.5897 -6.069985026456011 3.869643984754937 15.396348916728206 1 0 0
628 210 2 -1.1794 -8.380470121270125 2.638189444245336 16.674892085790283 1 0 0
638 213 1 0.5897 -6.652926923561006 3.087915726621573 16.55433347869608 1 0 0
163 55 2 -1.1794 -9.393579610080959 1.4974652646716056 19.035837245149096 1 0 -1
164 55 1 0.5897 -8.97801649183781 1.8409126997278684 18.24493374099511 1 0 -1
591 197 1 0.5897 -5.280600354711873 0.3476871742537767 14.540832873224746 1 0 0
629 210 1 0.5897 -9.093131778129294 3.2208684559922385 16.41237448394368 1 0 0
630 210 1 0.5897 -8.367436205462127 1.9568835833433282 16.00266834928452 1 0 0
19 7 2 -1.1794 -5.9824517709278915 2.682503393002531 19.244987055951746 0 0 -1
291 97 1 0.5897 -3.9105482577654436 10.543434953661482 2.310825326284992 1 0 0
146 49 1 0.5897 -1.5330968313106794 6.7988941031543195 1.9638397742886373 1 0 0
147 49 1 0.5897 -1.2598685787114814 7.7518919385713865 0.8197281343266773 1 0 0
289 97 2 -1.1794 -3.070201139572366 10.103943787477329 2.180460787870493 1 0 0
145 49 2 -1.1794 -0.8379765500912288 7.098827137793309 1.3781010499619428 1 0 0
332 111 1 0.5897 -2.736894290780439 9.206075301920182 0.5839435396719859 1 0 0
114 38 1 0.5897 -3.543729232456937 5.868206741562372 1.5991556624996228 1 0 0
255 85 1 0.5897 -2.749400022868584 8.64001906731736 3.9150035139029855 1 0 0
112 38 2 -1.1794 -3.2612806676415116 6.370139134376332 2.363671732550298 1 0 0
290 97 1 0.5897 -2.441838625733433 10.638903075146926 2.665424257150564 1 0 0
113 38 1 0.5897 -3.584132365822312 5.868836504620957 3.1124369328817907 1 0 0
224 75 1 0.5897 -0.6978007819781986 10.988122014175808 3.9421997915355185 0 0 0
8 3 1 0.5897 -1.0900338452962721 5.634689548852978 4.438807508004869 0 0 0
293 98 1 0.5897 -4.050111564991562 10.736284032274718 7.132654706483722 1 0 0
237 79 1 0.5897 -2.6333206669226636 8.62230621699939 8.53492971613571 0 0 0
292 98 2 -1.1794 -4.983504063347699 10.593696404213253 7.289978308144544 1 0 0
294 98 1 0.5897 -5.026548545736048 10.248293748323839 8.18160542439698 1 0 0
110 37 1 0.5897 -4.584180550481067 5.834788850202637 6.033932528862565 1 0 0
236 79 1 0.5897 -3.1695687089715534 7.513045468652454 7.6552236542543755 0 0 0
109 37 2 -1.1794 -4.604137083065682 6.308929542631198 6.865181010261003 1 0 0
302 101 1 0.5897 -2.200657501947855 10.177470343318696 5.9944042966467475 1 0 0
301 101 2 -1.1794 -2.4747933278736927 11.016794244239597 6.364148108203155 1 0 0
235 79 2 -1.1794 -2.3696067634568436 7.822289215975507 8.080302351194351 0 0 0
111 37 1 0.5897 -5.513408318011386 6.593615597716239 6.957355155645563 1 0 0
7 3 2 -1.1794 -0.8975995079594496 6.318523076292045 5.080345477164242 0 0 0
837 279 1 0.5897 -6.23945626865172 8.499356707107063 8.977333630206164 1 0 0
254 85 1 0.5897 -2.135766188899172 7.641106253824572 4.872906813415762 1 0 0
258 86 1 0.5897 -5.4900192624482065 9.566058135328172 5.871184674915484 1 0 0
257 86 1 0.5897 -4.604145820562643 8.611322095554781 5.099320997440542 1 0 0
303 101 1 0.5897 -1.677971711709577 11.380761499082183 6.7499703893433205 1 0 0
835 279 2 -1.1794 -5.557155349328082 8.909253415481794 9.509006869844715 1 0 0
253 85 2 -1.1794 -2.7576514667224865 8.367732397263744 4.832577665886975 1 0 0
759 253 1 0.5897 -6.099777839642467 9.138348819939004 13.268141944549194 1 0 0
650 217 1 0.5897 -3.8341253700757125 7.497092352099124 11.56431142705415 1 0 0
794 265 1 0.5897 -5.7048934882184685 10.85684635110575 11.941504508540262 1 0 0
513 171 1 0.5897 -4.280604615375086 6.069454429485198 13.98857780757728 0 0 0
649 217 2 -1.1794 -4.484449398881779 7.001921246452597 11.066190276405184 1 0 0
616 206 2 -1.1794 -6.983864898707054 6.72322070197943 12.063504795734339 1 0 0
651 217 1 0.5897 -5.266763742833337 7.01050557663088 11.617711197578211 1 0 0
795 265 1 0.5897 -6.162001496942055 9.784236991097265 10.975863399815777 1 0 0
793 265 2 -1.1794 -6.436687185414443 10.268903650386454 11.754206766543689 1 0 0
836 279 1 0.5897 -5.138726149451202 8.179851210637109 9.966383859253646 1 0 0
691 231 2 -1.1794 -2.6427239949119143 10.420286349520476 9.923686603073168 0 0 0
663 221 1 0.5897 -6.8405001413095 5.79662142437661 13.758939306048282 1 0 0
618 206 1 0.5897 -7.0939407616319965 6.103788319671617 11.342115720744816 1 0 0
757 253 2 -1.1794 -5.76076710688866 8.789777224929214 14.0926220200609 1 0 0
809 270 1 0.5897 -8.057234115802569 10.785355304976777 12.722183767683013 1 0 0
797 266 1 0.5897 -7.5711904334967635 10.642374834217096 16.80315537671779 1 0 0
798 266 1 0.5897 -8.8309679190357 9.969722820865062 16.300699895785954 1 0 0
187 63 2 -1.1794 -5.967753576525954 10.543211285377252 19.123885718834416 0 0 -1
739 247 2 -1.1794 -6.152419339368571 8.189204821601315 17.541106110746924 0 0 0
796 266 2 -1.1794 -8.521868139714234 10.635726296218436 16.91481201810118 1 0 0
333 111 1 0.5897 -9.196867957583923 9.620916791823895 18.47320886778104 1 0 -1
613 205 2 -1.1794 -7.986083493730282 6.359492152054895 16.701734122682765 1 0 0
740 247 1 0.5897 -6.959646565932333 7.792544003162714 17.21351876880921 0 0 0
758 253 1 0.5897 -5.796900502268203 9.529697361544843 14.698811136199263 1 0 0
805 269 2 -1.1794 -6.079540571794858 10.940287108723801 15.911459721698176 1 0 0
741 247 1 0.5897 -6.392124450012512 9.095258866487736 17.735884673237003 0 0 0
331 111 2 -1.1794 -9.324882706555531 8.962952934909922 19.156496915441295 1 0 -1
615 205 1 0.5897 -7.808378251372223 5.9043500287565776 15.878645837217258 1 0 0
762 254 1 0.5897 -8.000391322781844 8.220306868623293 14.77441938221865 1 0 0
806 269 1 0.5897 -6.568984512278249 11.476921793942767 15.287975990561852 1 0 0
614 205 1 0.5897 -7.696348261914936 5.749807859362645 17.380397048421223 1 0 0
512 171 1 0.5897 -4.647937953161078 7.443917948677611 14.506323470399174 0 0 0
223 75 2 -1.1794 -1.2654127048327748 11.677676906834023 3.597789937280812 0 0 0
280 94 2 -1.1794 -3.3405388839174215 14.236999232899054 2.6775602750369583 1 0 0
314 105 1 0.5897 -1.5854649715260636 14.45513676689255 1.9858511956920228 1 0 0
500 167 1 0.5897 -1.7830427209801907 16.068097114244043 0.6752148063877909 1 0 0
423 141 1 0.5897 -2.996557111920731 16.848771492873194 3.7563246767670186 1 0 0
282 94 1 0.5897 -3.4674840744576203 13.838809449637933 3.5386722670426964 1 0 0
313 105 2 -1.1794 -0.8465268788917975 14.601376040397875 1.395244537820314 1 0 0
315 105 1 0.5897 -0.8257583296284348 13.822350309980285 0.8394018533598027 1 0 0
225 75 1 0.5897 -1.0894919548121829 12.434777426523292 4.156462777406653 0 0 0
281 94 1 0.5897 -3.753173038704006 13.625737667603993 2.067389153543142 1 0 0
270 90 1 0.5897 -3.210654506103513 12.17205675515865 0.38702516168466894 1 0 0
499 167 2 -1.1794 -2.4336200872208122 16.575207677101414 0.1895459867568699 1 0 0
421 141 2 -1.1794 -2.858297439703299 16.518488114184716 4.64400122781948 1 0 0
769 257 2 -1.1794 -1.121818690866002 12.210684657269057 0.0658724847379806 1 0 1
771 257 1 0.5897 -0.32900497776991466 11.674706447768889 0.043054009050022615 1 0 1
306 102 1 0.5897 -4.7921187555137 11.754394647074712 3.6308693031655523 1 0 0
176 59 1 0.5897 -1.6516414545952378 14.976637438358786 4.754404328606156 0 0 0
1004 335 1 0.5897 -5.742459569364128 16.93662835449481 9.29237054989707 1 0 0
403 135 2 -1.1794 -2.6382458782892457 15.601268974609967 7.854872743437225 0 0 0
326 109 1 0.5897 -3.424237879011295 12.26839845549155 5.3786219189136 1 0 0
267 89 1 0.5897 -4.7048268097505845 12.659216053530523 8.685525076013791 1 0 0
277 93 2 -1.1794 -4.868770477012303 14.01412517666246 7.320058454235777 1 0 0
278 93 1 0.5897 -4.256935233508702 14.662466256479695 7.66870696688648 1 0 0
327 109 1 0.5897 -4.509151843993418 13.271986868269082 5.707173716710751 1 0 0
405 135 1 0.5897 -2.703774092724742 16.447610943289337 8.29726636734698 0 0 0
425 142 1 0.5897 -4.532863243409137 16.485915603713668 5.033987447636802 1 0 0
279 93 1 0.5897 -5.733477919594241 14.345159410695073 7.563018140603655 1 0 0
424 142 2 -1.1794 -5.467910081674996 16.57374647984929 5.219133396716858 1 0 0
404 135 1 0.5897 -1.9370218920406543 15.719113396289355 7.214064831286568 0 0 0
325 109 2 -1.1794 -4.116456680162472 12.793599663782272 4.976990056225313 1 0 0
175 59 2 -1.1794 -1.2138363419731233 14.184624358399843 5.066419941416118 0 0 0
462 154 1 0.5897 -5.638730975565307 17.183067994976216 6.931676290447154 1 0 0
265 89 2 -1.1794 -4.762897077905742 12.336101860138868 9.584628974975226 1 0 0
727 243 2 -1.1794 -4.552679016026156 12.043840519682535 13.00964989486162 0 0 0
819 273 1 0.5897 -4.6106658438612635 13.889887632407666 10.69743277269454 1 0 0
1005 335 1 0.5897 -5.5639176020366445 16.13234973725686 10.562431918508882 1 0 0
784 262 2 -1.1794 -7.113839458952242 14.14998885326513 12.21079007037351 1 0 0
818 273 1 0.5897 -5.390149284650102 14.604386321043739 11.780869091472615 1 0 0
728 243 1 0.5897 -3.7666152872512755 12.147262361115779 12.473299667847423 0 0 0
817 273 2 -1.1794 -4.605826269327261 14.680240844327727 11.237420545071306 1 0 0
786 262 1 0.5897 -7.285439210975843 13.782496713750865 13.077743032052476 1 0 0
729 243 1 0.5897 -4.605768150732208 12.854199955769769 13.516393053259227 0 0 0
925 309 2 -1.1794 -6.397126001808371 16.616293865839282 14.350066664158025 1 0 0
831 277 1 0.5897 -8.205353070946233 12.182536749020604 14.129151573654829 1 0 0
926 309 1 0.5897 -5.755625548113861 15.909941198043303 14.42683513833392 1 0 0
266 89 1 0.5897 -3.9995464615931793 11.767273495994992 9.685019729975673 1 0 0
774 258 1 0.5897 -6.612515644201068 12.307547335373112 9.747356119403445 1 0 0
1003 335 2 -1.1794 -6.223970447700015 16.59420123116359 10.045432490330684 1 0 0
873 291 1 0.5897 -3.4049666176541997 15.877391807769726 11.769919084539415 0 0 0
785 262 1 0.5897 -7.8884791051904894 14.677622508835737 12.01618625168658 1 0 0
907 303 2 -1.1794 -6.41961982426834 15.6340489602897 17.716312643296845 0 0 0
909 303 1 0.5897 -5.905909596662376 14.968986433223423 18.17465958208517 0 0 0
770 257 1 0.5897 -8.049826563350361 12.787315007586097 18.518271525486384 1 0 0
830 277 1 0.5897 -7.9916267952970435 12.978927146621057 15.398754948914517 1 0 0
783 261 1 0.5897 -7.78840335889577 14.488429503531012 17.06504062621935 1 0 0
781 261 2 -1.1794 -8.410737475685142 13.76226696177712 17.024072700813733 1 0 0
965 322 1 0.5897 -9.149167022791808 17.088603696357296 16.2270515332472 1 0 0
782 261 1 0.5897 -9.270405411283111 14.183238822686326 17.01404148381136 1 0 0
679 227 2 -1.1794 -4.430239050139599 14.59561121544468 14.702698013076906 0 0 0
829 277 2 -1.1794 -7.636635509070845 12.846009054298163 14.519837832828596 1 0 0
501 167 1 0.5897 -8.837145642339582 17.028627365983972 18.702306222146213 1 0 -1
908 303 1 0.5897 -5.781758611789685 16.09891318097884 17.174766046025923 0 0 0
930 310 1 0.5897 -8.304461983302765 16.059777971929943 14.727676456398997 1 0 0
807 269 1 0.5897 -5.564112049708383 11.569191525919273 16.41649851609494 1 0 0
393 131 1 0.5897 -1.5566764706730738 20.3775062986873 4.134014544304374 0 0 0
391 131 2 -1.1794 -1.5973422895255656 19.55224873481967 3.650710946852465 0 0 0
449 150 1 0.5897 -3.9437128531379466 21.30428187942408 1.8581463360855586 1 0 0
938 313 1 0.5897 -1.3283987252833973 20.82612103072816 0.30572890011342047 1 0 1
448 150 2 -1.1794 -3.8370593275767533 22.03953563094153 2.4616964225816407 1 0 0
481 161 2 -1.1794 -1.509957378211714 22.493580833138118 1.1656853866916224 1 0 0
483 161 1 0.5897 -2.1747258906780274 22.286288142868287 1.8224562241965083 1 0 0
457 153 2 -1.1794 -3.5689246093200317 17.93901435659846 2.2456762312208487 1 0 0
459 153 1 0.5897 -2.8994578913534035 18.53767885388267 2.5768679181591003 1 0 0
495 165 1 0.5897 -4.218187080560301 21.289279580546058 4.191024221304188 1 0 0
450 150 1 0.5897 -4.624881736121534 22.56878647717821 2.3368869330761517 1 0 0
458 153 1 0.5897 -3.168245959721002 17.532302987422074 1.477401389552481 1 0 0
437 146 1 0.5897 -3.3534394151832125 19.740044434773143 0.12723838543585086 1 0 0
392 131 1 0.5897 -0.9661077857969538 18.98406895166121 4.092294488732835 0 0 0
939 313 1 0.5897 -0.6192731861241199 19.502364226611625 0.11339662096727293 1 0 1
494 165 1 0.5897 -4.800974148138078 21.078041833570698 5.572147326937696 1 0 0
447 149 1 0.5897 -5.952785782250068 22.02078059777945 7.788146385772631 1 0 0
471 157 1 0.5897 -3.868828506922986 18.4933215224951 6.809253194820045 1 0 0
470 157 1 0.5897 -3.4626731331026552 19.361570832021624 5.637516382793743 1 0 0
445 149 2 -1.1794 -5.202328908361645 21.567517644004095 7.403864335333592 1 0 0
446 149 1 0.5897 -4.917601245314945 20.95607793452977 8.083068058564134 1 0 0
343 115 2 -1.1794 -1.2934155793853748 21.850192514411074 5.129518923241427 0 0 0
469 157 2 -1.1794 -3.107444063521802 18.76571061717217 6.29705891450569 1 0 0
460 154 2 -1.1794 -5.396082109191887 17.790465389077525 7.630527854549505 1 0 0
422 141 1 0.5897 -2.961761649346198 17.287266251523196 5.204846815195208 1 0 0
859 287 2 -1.1794 -2.7380155844992786 17.926440596042305 9.555177788531104 0 0 0
345 115 1 0.5897 -1.9214990892986756 22.5724470845228 5.143220876866747 0 0 0
461 154 1 0.5897 -6.0611241980495105 18.477949116752498 7.592719462330334 1 0 0
860 287 1 0.5897 -3.195108747410481 18.76335140139603 9.471519106886431 0 0 0
344 115 1 0.5897 -1.4347085034757034 21.393482591060828 5.958758591980171 0 0 0
68 23 1 0.5897 -3.938557040989573 22.983276249674425 7.795824078869577 0 -1 0
493 165 2 -1.1794 -4.51608757834079 20.604933325935594 4.790332875562719 1 0 0
998 333 1 0.5897 -8.014773274120158 20.828555138846582 13.665277184389968 1 0 0
963 321 1 0.5897 -6.637574619178959 17.83289710799316 11.34750372246577 1 0 0
961 321 2 -1.1794 -6.661055287602826 18.280910264046547 12.193037555310275 1 0 0
954 318 1 0.5897 -6.525607962785076 21.92683043558793 12.182426845595163 1 0 0
952 318 2 -1.1794 -7.449409607833838 21.67880062404093 12.219343141413418 1 0 0
896 299 1 0.5897 -5.141394962228653 19.343310351532356 12.454532336503084 0 0 0
895 299 2 -1.1794 -4.373434380527329 19.77619944728776 12.827488050799792 0 0 0
962 321 1 0.5897 -6.45658502394744 17.59818216454675 12.832038435909183 1 0 0
953 318 1 0.5897 -7.921751968929561 22.476034781309814 11.979233645819715 1 0 0
985 329 2 -1.1794 -4.621316647155787 22.652747336563653 11.38521967704156 1 0 0
434 145 1 0.5897 -4.357576616863616 20.815127301186905 10.188106500379808 1 0 0
897 299 1 0.5897 -4.047892897552684 19.162166479348702 13.485684094131559 0 0 0
848 283 1 0.5897 -4.688764196752915 21.25915606167352 13.932548613367137 0 0 0
433 145 2 -1.1794 -4.44917160048475 20.04442654703857 9.627840409625962 1 0 0
435 145 1 0.5897 -5.388682400964246 19.861113521993698 9.623602837301739 1 0 0
941 314 1 0.5897 -7.4772425240014915 20.53825841658596 10.644419964206813 1 0 0
975 325 1 0.5897 -5.897816594508024 19.531560950144772 16.297303023818472 1 0 0
964 322 2 -1.1794 -8.916415939474504 17.819734663640684 16.799300501482563 1 0 0
997 333 2 -1.1794 -8.311081370565525 20.50930334386761 14.51759956433059 1 0 0
974 325 1 0.5897 -7.0987071275523235 18.609993777359126 16.321332555171942 1 0 0
973 325 2 -1.1794 -6.422269762897696 18.956895145654556 15.73967893627414 1 0 0
949 317 2 -1.1794 -8.74984000327077 21.76716635173934 16.84627804434325 1 0 0
950 317 1 0.5897 -8.572251879560369 21.326450621877022 16.015362447821914 1 0 0
951 317 1 0.5897 -8.859125754757997 21.05534390770343 17.476833086934448 1 0 0
573 191 1 0.5897 -6.315198594703222 22.79055124709908 18.435590409193942 0 -1 0
999 333 1 0.5897 -7.570883261142263 20.005101101967 14.855545673805304 1 0 0
847 283 2 -1.1794 -4.7640636394133375 22.035163668887886 14.487890797119102 0 0 0
966 322 1 0.5897 -9.670118298859709 18.408208900978185 16.755495917159344 1 0 0
356 119 1 0.5897 -6.296138871023855 17.36769664632187 18.649144638178257 0 0 -1
572 191 1 0.5897 -7.510905865093694 22.951233109466255 17.52106674698158 0 -1 0
937 313 2 -1.1794 -8.233447333150309 20.243928900949765 19.211507009453072 1 0 0
927 309 1 0.5897 -6.040798158975758 17.323621004841872 14.887628185449818 1 0 0
884 295 1 0.5897 -5.268081273714069 21.40356577230204 16.46151833649151 0 0 0
355 119 2 -1.1794 -6.063694645406072 18.113496430362417 19.20231929533022 0 0 -1
72 24 1 0.5897 4.2021911087678525 -0.25178723126624386 1.9388144700179184 0 0 0
31 11 2 -1.1794 1.1317904095342248 0.9932653621106189 2.174282114803611 0 0 0
54 18 1 0.5897 2.9854127782651627 3.3676660907400553 2.6407017269078925 0 0 0
32 11 1 0.5897 0.81050193941907 1.4592385458168666 2.9462044471375637 0 0 0
48 16 1 0.5897 1.9450771930521524 5.365503160778238 2.91888620182992 0 0 0
71 24 1 0.5897 2.9275933880168354 0.5522922251742888 1.7937483851446057 0 0 0
52 18 2 -1.1794 3.8164573781184004 3.0433862035586015 2.987825294240846 0 0 0
46 16 2 -1.1794 1.5332918191168403 4.823156576586617 2.2462034729045195 0 0 0
16 6 2 -1.1794 5.057097450292609 4.836785494812294 0.06670699236262856 0 0 0
6 2 1 0.5897 3.4699687980945404 1.5884308167099936 4.114274426883206 0 0 0
47 16 1 0.5897 1.4572404704923656 5.400104004324005 1.4862261786075177 0 0 0
70 24 2 -1.1794 3.721041298243036 0.2994985892433232 1.3216974700711497 0 0 0
528 176 1 0.5897 3.781119946200876 1.7576630848088923 0.07544222636142164 0 0 1
78 26 1 0.5897 0.020118471895132828 2.8389647015743 4.451613410121865 0 0 0
53 18 1 0.5897 4.014701470394298 3.6270794518184317 3.7200945557581324 0 0 0
76 26 2 -1.1794 0.73990662307801 2.2339813724073863 4.631189639697557 0 0 0
5 2 1 0.5897 3.109307827198063 0.14659898124815263 4.402471703650272 0 0 0
4 2 2 -1.1794 3.6640630462334425 0.8639274429217993 4.7089611516341146 0 0 0
21 7 1 0.5897 0.9765763175869093 2.062449282931614 0.7720397952162008 0 0 0
45 15 1 0.5897 0.4664140956391498 4.578540914624106 7.319168066839157 0 0 0
36 12 1 0.5897 -0.85654940751219 0.7625819353187913 7.259362050465366 0 0 0
59 20 1 0.5897 1.7553385355210693 3.6586063562313944 5.42280525156795 0 0 0
34 12 2 -1.1794 0.017934730632005014 1.145367744157445 7.188308095309569 0 0 0
35 12 1 0.5897 0.06862300266159638 1.7648408349521314 7.916256366025311 0 0 0
60 20 1 0.5897 2.781909605984527 3.7755358569008814 6.529289511396207 0 0 0
58 20 2 -1.1794 2.0326284802736776 4.227345391919627 6.141014185920069 0 0 0
43 15 2 -1.1794 -0.4691162992246771 4.765388239703565 7.397863189326984 0 0 0
77 26 1 0.5897 0.5089699324525423 1.8274295616673686 5.466394520077389 0 0 0
402 134 1 0.5897 2.163272886964819 -0.12461111302672623 9.049083916537825 0 1 0
44 15 1 0.5897 -0.5530623710098106 5.22214197546693 8.23483447167973 0 0 0
522 174 1 0.5897 2.0649048126451355 5.452152986293089 9.600921839613445 0 0 0
401 134 1 0.5897 1.240691027961816 -0.034055606340838485 7.8522235404535525 0 1 0
525 175 1 0.5897 -1.6010660430713748 2.576152159125214 9.528417939275585 0 0 0
22 8 2 -1.1794 0.21096879970276117 2.742364104962304 9.60821848023124 0 0 0
557 186 1 0.5897 0.46300130101036086 2.5265917316046913 13.49843117604449 0 0 0
552 184 1 0.5897 -2.775116270421301 4.580412557884008 12.241172165494971 0 0 0
574 192 2 -1.1794 0.448864785388456 0.3113522171962969 11.227811861574772 0 0 0
558 186 1 0.5897 -0.24767184349329074 3.600679621790453 12.702630287355579 0 0 0
576 192 1 0.5897 -0.34029938818846794 0.5131986818088241 11.730573099766152 0 0 0
556 186 2 -1.1794 0.6222297094401412 3.3194795236227836 12.986325991387057 0 0 0
536 179 1 0.5897 -2.021534477162242 1.4384752931854106 13.203557562343773 0 0 0
535 179 2 -1.1794 -2.0386386773573806 0.9920826261337008 12.357028075909286 0 0 0
550 184 2 -1.1794 -1.8453626663915284 4.5648220512822375 12.014025392478077 0 0 0
551 184 1 0.5897 -1.4295018420349015 5.128787321304668 12.666121050829725 0 0 0
537 179 1 0.5897 -2.19117128796972 1.6904781432809552 11.720521090270818 0 0 0
23 8 1 0.5897 0.4282309027433677 2.004810864008027 10.178358098291032 0 0 0
560 187 1 0.5897 -3.652978636887852 3.769825352095004 13.890434871178895 0 0 0
24 8 1 0.5897 0.8324132680290486 3.427433033848822 9.85465022414848 0 0 0
520 174 2 -1.1794 2.0804870549201855 4.669537801308142 10.15183826569167 0 0 0
587 196 1 0.5897 -1.406860984544129 5.470134130797403 10.390682548962412 0 0 0
508 170 2 -1.1794 0.4618180903821054 1.0056299477315906 14.439395422201214 0 0 0
539 180 1 0.5897 -3.5714782697916094 1.7459153548957573 17.320116312195978 0 0 0
540 180 1 0.5897 -4.5915226739085515 0.7154167708831198 16.884712444227787 0 0 0
526 176 2 -1.1794 -3.2591968706478793 2.8169601295934 18.942141017402214 0 0 0
564 188 1 0.5897 -1.9981712425179063 4.54008105649241 16.570862318888253 0 0 0
562 188 2 -1.1794 -1.114329665902826 4.294785820949248 16.297057914374342 0 0 0
538 180 2 -1.1794 -3.6953589561176567 1.0094614403465338 16.721329198373766 0 0 0
547 183 2 -1.1794 -3.6732180305377398 5.048788952500903 16.93390017521226 0 0 0
549 183 1 0.5897 -4.420053877924215 4.459954661925625 16.825327602711248 0 0 0
581 194 1 0.5897 -3.144573510959897 2.145072697053656 15.428219332202401 0 0 0
563 188 1 0.5897 -0.8761252784929683 4.94944687633358 15.640615263075874 0 0 0
582 194 1 0.5897 -2.05191940216448 3.173165792954845 15.225566022523969 0 0 0
905 302 1 0.5897 -2.4070307628932737 -0.07409244163421339 17.515636268873408 0 1 0
580 194 2 -1.1794 -2.6616311887379114 2.6120598767313328 14.74638147350018 0 0 0
527 176 1 0.5897 -4.206320928831304 2.9113680142476492 19.043961991279545 0 0 0
18 6 1 0.5897 -2.194415808069058 4.370708943380889 18.96454817342439 0 0 -1
199 67 2 -1.1794 1.2282699281318994 8.763221108817497 2.192247260762913 0 0 0
240 80 1 0.5897 3.54116762912209 7.3492805079013594 0.8339044572451114 0 0 0
189 63 1 0.5897 1.0463301055477885 9.838084248310748 0.6005066779139323 0 0 0
220 74 2 -1.1794 3.449912712436941 10.671887112982368 3.4527984403101306 0 0 0
238 80 2 -1.1794 3.842540953546279 8.010688514888662 1.4567650041333955 0 0 0
222 74 1 0.5897 2.9457316711484065 11.264067653654198 2.8947664102432236 0 0 0
239 80 1 0.5897 3.8240539848349036 8.830923330128499 0.9636578767659667 0 0 0
201 67 1 0.5897 2.088696978192308 8.348911536105193 2.1263711149773155 0 0 0
245 82 1 0.5897 0.9369859745196125 9.59545058926502 3.8289618118380133 0 0 0
174 58 1 0.5897 3.815504633510634 9.221918900505958 4.544420404966158 0 0 0
221 74 1 0.5897 4.159034346737231 10.358480398126066 2.891363629940696 0 0 0
200 67 1 0.5897 0.6064818717150291 8.0430096480039 2.0875080827726116 0 0 0
244 82 2 -1.1794 0.5953763910038692 10.041729818716863 4.60376349254446 0 0 0
9 3 1 0.5897 -0.935780461812159 5.871739550070703 5.9259783001752115 0 0 0
64 22 2 -1.1794 2.2127165571552156 6.8997178393845875 8.512828448606566 0 0 0
692 231 1 0.5897 -1.7432595589141693 10.390901194041694 9.597532706151943 0 0 0
202 68 2 -1.1794 0.46790556931628347 8.360320904374825 7.0092611411505965 0 0 0
246 82 1 0.5897 0.5272354230127698 9.35410853668244 5.266147568093565 0 0 0
203 68 1 0.5897 -0.37072111795065776 7.903967081727195 7.0781232510954535 0 0 0
204 68 1 0.5897 1.087761007227261 7.794049970967812 7.46905729665492 0 0 0
191 64 1 0.5897 0.3019356704776559 9.410136237982357 8.54809277311177 0 0 0
228 76 1 0.5897 1.5888767340570347 11.191414039881968 5.713826889171315 0 0 0
11 4 1 0.5897 1.9370615975428045 5.965820582591736 5.398955593512935 0 0 0
192 64 1 0.5897 0.463230675893028 10.68629932685351 9.346467284103447 0 0 0
588 196 1 0.5897 -1.6783227231088218 6.526497679735655 9.340756605227726 0 0 0
190 64 2 -1.1794 -0.015051591303241185 9.857226097667406 9.332850800271938 0 0 0
12 4 1 0.5897 0.8916923079097083 6.9460677973705565 4.910638764911804 0 0 0
173 58 1 0.5897 3.0790568881499585 7.998357525747695 5.046960413274347 0 0 0
10 4 2 -1.1794 1.8259970107237633 6.745376539022524 4.8546928911462635 0 0 0
514 172 2 -1.1794 -1.2108262340109928 6.185027622080296 14.18476101612671 0 0 0
744 248 1 0.5897 -0.3465119099525462 7.361831746491688 10.753496584497741 0 0 0
703 235 2 -1.1794 -2.5211041796929727 8.67188295593617 12.118022604057373 0 0 0
742 248 2 -1.1794 -0.00036665127328738834 7.978814089916597 11.398270769386466 0 0 0
705 235 1 0.5897 -2.529453062046982 9.180960068316137 12.928562979210211 0 0 0
743 248 1 0.5897 0.14159328605004928 8.78690619046884 10.905204371141686 0 0 0
704 235 1 0.5897 -1.6099156296390644 8.396492751030092 12.016918147519107 0 0 0
724 242 2 -1.1794 0.0501924057643679 11.105444055967581 12.929841218489281 0 0 0
516 172 1 0.5897 -0.6931939831737655 6.990108689518852 14.198965444843106 0 0 0
678 226 1 0.5897 0.17348833336206226 9.493702566799504 13.83046677647547 0 0 0
515 172 1 0.5897 -2.115160203478747 6.479217579035635 14.294164336041437 0 0 0
748 250 2 -1.1794 -2.769900081261465 10.47486697045955 14.40604834051722 0 0 0
586 196 2 -1.1794 -0.9666902331727889 6.05532937722805 9.774210962766832 0 0 0
750 250 1 0.5897 -3.5096388987714056 10.9843445365949 14.07507870369017 0 0 0
693 231 1 0.5897 -2.6527184409179325 9.803871038992225 10.655882377789627 0 0 0
749 250 1 0.5897 -3.107127544234884 10.044908614022019 15.191932603383151 0 0 0
707 236 1 0.5897 -4.353403934470024 8.912886121355953 16.867121839168604 0 0 0
706 236 2 -1.1794 -3.4885564122850097 9.292779506821846 16.71220242699539 0 0 0
568 190 2 -1.1794 -1.6412479679971055 7.659113617036573 18.002032270372595 0 0 0
695 232 1 0.5897 -3.0007817819008675 10.464904053567867 18.326418009931665 0 0 0
708 236 1 0.5897 -2.8748945932876175 8.598531315619265 16.952553331780436 0 0 0
569 190 1 0.5897 -1.8796456587326817 6.810304907655793 18.37483259593578 0 0 0
83 28 1 0.5897 -5.225433227818988 7.070323651218182 18.646756990627814 0 0 -1