LAMMPS (30 Jul 2021)
Processor partition = 1
  using 4 OpenMP thread(s) per MPI task
using multi-threaded neighbor list subroutines
variable        pid world 0 1
variable        phase world IceVI IceV

shell cd ${phase}
shell cd IceV
include Restart.lmp
echo both
log log.lammps
#include		in.partitions
include		in.temp
variable        temperature equal 148.27
variable	tempDamp equal 100.0
include		in.pressure
variable        pressure equal 8329.9
variable        pressureDamp equal 1000.0 # This is 1 ps
include		in.seed
variable        seed equal 745823

units		real
atom_style	full
read_restart    restart.lmp.${pid}
read_restart    restart.lmp.1
Reading restart file ...
  restart file = 30 Jul 2021, LAMMPS = 30 Jul 2021
  restoring atom style full from restart
  triclinic box = (-3.0895558 -0.10330970 0.017333512) to (14.699555 22.683309 19.212664) with tilt (-0.28119351 -6.5687669 0.25319662)
  2 by 4 by 2 MPI processor grid
  restoring pair style lj/cut/tip4p/long/omp from restart
  restoring bond style harmonic/omp from restart
  restoring angle style harmonic/omp from restart
  1008 atoms
  672 bonds
  336 angles
Finding 1-2 1-3 1-4 neighbors ...
  special bond factors lj:    0        0        0       
  special bond factors coul:  0        0        0       
     2 = max # of 1-2 neighbors
     1 = max # of 1-3 neighbors
     1 = max # of 1-4 neighbors
     2 = max # of special neighbors
  special bonds CPU = 0.001 seconds
  read_restart CPU = 0.006 seconds

include 	in.setup
variable	out_freq equal 1000
variable	out_freq2 equal 10000
variable	out_freq3 equal 1000

timestep	2.0

neigh_modify    delay 7 every 1

include		in.tip4p
# This is TIP4P/Ice

# create groups ###
group ox type 2
336 atoms in group ox
group hy type 1
672 atoms in group hy

# set charges - beside manually ###
set group ox charge -1.1794
Setting atom values ...
  336 settings made for charge
set group hy charge 0.5897
Setting atom values ...
  672 settings made for charge

# ### TIP3P Potential Parameters ###
pair_style lj/cut/tip4p/long/omp 2 1 1 1 0.1577 8.5
pair_coeff 1 1*2 0.000 0.000
pair_coeff 2 2 0.21084 3.1668
bond_style  harmonic
bond_coeff  1 450 0.9572
angle_style harmonic
angle_coeff 1 55 104.52
kspace_style pppm/tip4p/omp 1.0e-5
pair_modify tail yes

thermo          ${out_freq}
thermo          1000
thermo_style    custom step temp pe etotal epair emol press lx ly lz vol pxx pyy pzz pxy pxz pyz enthalpy

restart 	${out_freq3} restart.lmp.${pid} restart2.lmp.${pid}
restart 	1000 restart.lmp.${pid} restart2.lmp.${pid}
restart 	1000 restart.lmp.1 restart2.lmp.${pid}
restart 	1000 restart.lmp.1 restart2.lmp.1


include         in.dump
dump            myDump all atom ${out_freq2} dump.water.${pid}
dump            myDump all atom 10000 dump.water.${pid}
dump            myDump all atom 10000 dump.water.1
dump            myDump2 all dcd ${out_freq2} dump.dcd
dump            myDump2 all dcd 10000 dump.dcd
dump_modify     myDump append yes
dump_modify     myDump2 append yes


variable natoms 	equal  "count(all)"                        # NUMBER ATOMS
variable H      	equal  "enthalpy/v_natoms"                 # ENTHALPY-per-atom
variable Vol      	equal  "vol/v_natoms"                 # volume-per-atom
fix AVG all 		ave/time ${out_freq} 1 ${out_freq} v_Vol v_H file vol_enthalpy.dat
fix AVG all 		ave/time 1000 1 ${out_freq} v_Vol v_H file vol_enthalpy.dat
fix AVG all 		ave/time 1000 1 1000 v_Vol v_H file vol_enthalpy.dat



fix 		1 all shake 1e-6 200 0 b 1 a 1
Finding SHAKE clusters ...
       0 = # of size 2 clusters
       0 = # of size 3 clusters
       0 = # of size 4 clusters
     336 = # of frozen angles
  find clusters CPU = 0.000 seconds
fix             2 all nph tri ${pressure} ${pressure} ${pressureDamp}
fix             2 all nph tri 8329.9 ${pressure} ${pressureDamp}
fix             2 all nph tri 8329.9 8329.9 ${pressureDamp}
fix             2 all nph tri 8329.9 8329.9 1000
fix             3 all temp/csvr ${temperature} ${temperature} ${tempDamp} ${seed}
fix             3 all temp/csvr 148.27 ${temperature} ${tempDamp} ${seed}
fix             3 all temp/csvr 148.27 148.27 ${tempDamp} ${seed}
fix             3 all temp/csvr 148.27 148.27 100 ${seed}
fix             3 all temp/csvr 148.27 148.27 100 745823


run             250000
PPPM initialization ...
  extracting TIP4P info from pair style
  using 12-bit tables for long-range coulomb (../kspace.cpp:340)
  G vector (1/distance) = 0.38005552
  grid = 24 27 32
  stencil order = 5
  estimated absolute RMS force accuracy = 0.0023679981
  estimated relative force accuracy = 7.1311559e-06
  using double precision FFTW3
  3d grid and FFT values/proc = 7875 1344
Last active /omp style is kspace_style pppm/tip4p/omp
Neighbor list info ...
  update every 1 steps, delay 7 steps, check yes
  max neighbors/atom: 2000, page size: 100000
  master list distance cutoff = 10.8154
  ghost atom cutoff = 10.8154
  binsize = 5.4077, bins = 5 5 4
  1 neighbor lists, perpetual/occasional/extra = 1 0 0
  (1) pair lj/cut/tip4p/long/omp, perpetual
      attributes: half, newton on, omp
      pair build: half/bin/newton/tri/omp
      stencil: half/bin/3d/tri
      bin: standard
Setting up Verlet run ...
  Unit style    : real
  Current step  : 23250000
  Time step     : 2
Per MPI rank memory allocation (min/avg/max) = 12.46 | 12.47 | 12.48 Mbytes
Step Temp PotEng TotEng E_pair E_mol Press Lx Ly Lz Volume Pxx Pyy Pzz Pxy Pxz Pyz Enthalpy 
23250000    150.47094   -5065.0197   -4764.0593   -5065.0197            0    8576.2926    17.789111    22.786618    19.195331     7780.898    9465.3481     8144.608    8118.9216   -175.79779    309.52296    625.78926   -3790.8523 
23251000    150.78259   -5090.9726   -4789.3888   -5090.9726            0    7823.1297    17.773534    22.672043    19.340238    7793.3872    8601.1066    8467.6053    6400.6773   -542.07765   -16.622404    1117.3401   -3900.2231 
23252000    143.86262   -5070.6648   -4782.9218   -5070.6648            0    6716.0012     17.83793    22.692967    19.310801    7816.9266    6613.1525    6580.4133    6954.4378    335.13133   -310.43564    533.64813   -4017.2852 
23253000    151.96723   -5087.4383   -4783.4851   -5087.4383            0    9111.1582    17.757596    22.904734    19.019727    7735.9511    9481.3835    8234.3103    9617.7808   -324.69869   -1228.8651    -126.6209   -3755.5559 
23254000    136.06392   -5077.8186   -4805.6739   -5077.8186            0    7853.2677    17.903993    22.737892    19.124889    7785.7246    8738.3625    7613.0078    7208.4327    -83.85459    -144.5601   -1254.2225   -3913.9605 
23255000    144.92375   -5078.7076   -4788.8422   -5078.7076            0    7430.0429    17.793483    22.670412    19.342249    7802.3846    8218.6129    7944.1465    6127.3692   -767.88152   -603.35844    -1115.543   -3943.3793 
23256000     151.1757   -5076.2628   -4773.8927   -5076.2628            0    7947.2349    17.847122    22.818642     19.11266    7783.5756    7884.2122    7822.9501    8134.5424   -4.4027999    877.24839   -91.269428   -3871.7586 
23257000    149.66997   -5085.3506   -4785.9922   -5085.3506            0    8356.8576    18.037722    22.697094     19.00416    7780.3765    7458.8369    8460.2234    9151.5126    10.743823   -343.30535    -368.7165   -3837.7495 
23258000    152.98688   -5090.2927   -4784.3001   -5090.2927            0    7470.8253    17.965196    22.666856    19.170932    7806.6815    6343.9848    8494.6091    7573.8821    38.132528     535.1635     1272.946   -3933.7284 
23259000    149.41239   -5060.2596   -4761.4164   -5060.2596            0    9360.1131    17.884337    22.851092    18.990625    7761.0244     9298.158    8317.1149    10465.067   -700.86288   -14.408864    -308.3326   -3701.9772 
23260000    157.24134   -5079.0686   -4764.5665   -5079.0686            0    10546.736    17.895578    22.531535    19.152493    7722.5695    9528.3678     11515.15    10596.689    559.99819    983.74824    -634.1262   -3576.7324 
23261000    144.69446   -5073.0539   -4783.6471   -5073.0539            0    8476.2784    17.790537    22.863048    19.094054    7766.4284    8626.3256    8117.1305    8685.3791    1491.2105   -72.697213   -653.53263   -3823.5781 
23262000    153.70457    -5064.449   -4757.0209    -5064.449            0    7807.4349    17.863431    22.771503    19.201161    7810.5937    7223.7814    7939.4153     8259.108    766.87814      222.287    381.71497   -3867.6799 
23263000    156.74795   -5070.6423    -4757.127   -5070.6423            0    8206.2526    17.912388    22.450064    19.351074    7781.7299    9332.1429    8118.5511    7168.0639    1854.5186   -1522.9088    951.57608   -3825.8113 
23264000    154.63587   -5091.7159   -4782.4251   -5091.7159            0    8477.2913    17.800716    22.817967    19.158234    7781.6178    9479.6305     8789.288    7162.9554   -1529.5609   -423.46247    724.04171   -3820.3635 
23265000    153.01307   -5090.8434   -4784.7984   -5090.8434            0    8178.2802    17.749371    22.836852    19.192106    7779.3232    9756.0707    8128.0712    6650.6989   -554.26764    638.50917   -81.757381   -3856.9443 
23266000    152.18959    -5081.761    -4777.363    -5081.761            0    7847.6743    17.912805    22.586012    19.229331    7779.7802     7884.515    8108.0314    7550.4764   -348.09256    -682.7438   -1915.5368    -3886.965 
23267000     149.0827   -5084.6624   -4786.4786   -5084.6624            0    7740.2724    17.827055    22.768773    19.178306    7784.4775    7831.7779    7152.6579    8236.3813    184.19413    70.746254    445.52737   -3907.7362 
23268000    156.48756   -5104.9209   -4791.9265   -5104.9209            0    8651.8954    17.760212    22.881305    19.112118     7766.722    9991.2458    8235.5191    7728.9213    145.51221    20.279161     -234.035   -3811.9291 
23269000    150.99233   -5083.7379   -4781.7346   -5083.7379            0    9289.7302    17.941772    22.550662     19.21292    7773.5255    9783.5856    9408.0841     8677.521    375.14127    156.34678    587.75719   -3728.5682 
23270000    146.69159   -5075.7587   -4782.3574   -5075.7587            0    9866.3327    17.818545    22.804317    19.077875    7752.0988    9040.5664    10654.615    9903.8167     304.0932    1005.2915   -226.32954   -3666.9053 
23271000    140.08359   -5077.4782   -4797.2937   -5077.4782            0    7864.2377    17.656375    22.988016      19.1955     7791.166    7063.4834    7968.6457    8560.5841    240.96718   -149.60306    161.23933   -3903.7106 
23272000    149.31941   -5075.4744   -4776.8171   -5075.4744            0    8789.2331    17.918222    22.448429    19.326995    7774.0121    9034.5434    8763.7318    8569.4241    -1072.284   -641.36803    -213.0717   -3780.3291 
23273000    144.54746   -5085.0818    -4795.969   -5085.0818            0    9081.7297    17.693192    22.978064    19.057269     7747.834    10079.081     8628.825    8537.2826    -639.7138    556.97717   -1827.6036   -3769.7861 
23274000    159.97245   -5080.1226   -4760.1579   -5080.1226            0    7960.3698    17.939346    22.445966    19.400472    7811.9094    8229.5095    8569.6546    7081.9453    213.89508    155.45929    621.27261   -3853.2435 
23275000      154.308   -5074.5254   -4765.8904   -5074.5254            0    8834.3711    18.000504    22.519544     19.17999    7774.8612    7943.8348    8817.9434     9741.335    717.92121    164.25671    169.89978   -3764.1754 
23276000     150.4819   -5077.8299   -4776.8475   -5077.8299            0    7906.3901    17.763271    23.120811    19.025858    7813.9429    8606.2831    7263.4166    7849.4706   -196.79223   -138.00004    985.41273   -3875.8484 
23277000    152.29926   -5068.1307   -4763.5134   -5068.1307            0    9535.1594    17.928509    22.339257    19.414248    7775.5919    9999.7967    10957.101    7648.5802   -542.06805    794.19404   -318.72267   -3682.2356 
23278000    149.47544   -5091.7135   -4792.7441   -5091.7135            0    8048.7999    17.769272    22.738187    19.281575    7790.5472    9536.2258    7383.0138      7227.16   -761.14295   -360.15456   -907.20032   -3878.2625 
23279000    145.26222   -5069.9853   -4779.4429   -5069.9853            0    8373.5032     17.72782    23.015009    19.093903    7790.4259    10000.654    7442.0865    7677.7696   -211.26413    429.52928    659.06446   -3828.0842 
23280000    154.22923   -5078.0036   -4769.5261   -5078.0036            0    8695.1999    18.053828    22.358471    19.315786    7796.9329    7525.7174    9332.0573     9227.825   -228.79688   -146.02336    77.428679   -3780.7926 
23281000     150.8113   -5062.1083   -4760.4671   -5062.1083            0    9359.1407    17.819059    22.810792    19.074047    7752.9675    9107.5186    9262.3354    9707.5681    244.58679    526.17623   -377.58237   -3702.2377 
23282000    151.89923   -5075.8656   -4772.0484   -5075.8656            0    8243.4474    17.864778    22.833505    19.095743    7789.4498    8124.5396    8563.5642    8042.2384    116.46542   -98.518433    -577.2501   -3835.5834 
23283000    147.31971   -5074.4275   -4779.7699   -5074.4275            0    8804.2164     18.01844    22.621654    19.079932    7777.1126    7040.8515    9337.4895    10034.308    178.61424    1579.1159   -443.63998    -3781.185 
23284000    145.24196   -5080.1273   -4789.6255   -5080.1273            0    9190.8892    17.838255    22.704709    19.111394    7740.3517     8278.373    9629.6716    9664.6229   -377.35786   -202.93717   -485.00987   -3752.1111 
23285000    144.79493   -5091.1684   -4801.5606   -5091.1684            0    7476.3784    17.939682    22.732375    19.144385    7807.3017     6265.973     7467.066    8696.0962    193.63506    36.652008   -743.43624    -3950.289 
23286000    146.63951   -5091.4404   -4798.1433   -5091.4404            0    7842.0413    17.841407    22.837313    19.123849    7792.0086    7943.8028    7348.7845    8233.5366    108.29326   -536.66143   -553.84685   -3906.9859 
23287000    154.58113   -5088.3086   -4779.1273   -5088.3086            0    9376.9051    17.763704    22.730991    19.191977    7749.4628     9577.044    9646.1316    8907.5397   -1540.5568    801.61566    164.22219   -3719.3685 
23288000    145.66377   -5080.5047   -4789.1591   -5080.5047            0    7108.6965    17.935828    22.570375    19.299469    7812.7795    8132.3192    7043.1021    6150.6683    243.83187   -361.04655   -930.60188   -3979.1845 
23289000    148.47951   -5084.7048   -4787.7274   -5084.7048            0    8141.8139    17.877886    22.717478     19.20008    7797.9297    8168.5634    7777.1872    8479.6913   -1055.9453    176.90775   -397.53011   -3861.8012 
23290000    146.65716   -5076.4699   -4783.1374   -5076.4699            0    8414.2664    17.897487    22.815683    19.113903    7805.0361    8101.4784    8028.2953    9113.0256   -864.94033    854.75385   -112.54247   -3825.3546 
23291000    151.52546   -5083.9147   -4780.8451   -5083.9147            0    7687.1107    17.918023    22.765343    19.079701    7782.7996    6942.4298    7948.5129    8170.3894   -558.04571    332.91083   -1254.2512   -3908.3262 
23292000    148.21716    -5073.085   -4776.6324    -5073.085            0    9076.5346    17.933817    22.645956    19.109132    7760.7617    8866.5758    8337.2074    10025.821    345.58936   -595.41047    509.93002   -3749.3253 
23293000    151.38443   -5076.5793   -4773.7917   -5076.5793            0    6789.2692    17.917223    22.668483    19.229873    7810.3334    5702.5263     6874.516    7790.7654    273.12666   -1236.2217     425.9536   -4000.4553 
23294000    145.75762   -5091.1187   -4799.5854   -5091.1187            0    8151.3805    17.679441    22.883015    19.218557    7775.0388    9509.5626    7177.3702    7767.2087    962.26925    -630.2392   -283.29453   -3875.2925 
23295000    137.92881   -5076.5998   -4800.7252   -5076.5998            0    8690.7983    17.855378    22.614616    19.226835    7763.6519     8474.907    9628.0339     7969.454    -697.3203   -415.85495    96.428469   -3816.7104 
23296000    143.80932   -5083.8324    -4796.196   -5083.8324            0     8494.662    17.939819    22.725894    19.106085    7789.5208    6929.5725    9436.8611    9117.5524     202.3697    3.8458379   -666.40137    -3831.184 
23297000     151.0153   -5083.0166   -4780.9673   -5083.0166            0    7911.6002    17.863787    22.935775    18.975847      7774.78    6648.4694    7924.1173     9162.214   -478.86627    271.65845   -817.66611   -3883.8932 
23298000    148.91915    -5093.658   -4795.8013    -5093.658            0    7744.4014    17.999897    22.547137    19.205334    7794.4112    8110.9575    7538.0688    7584.1779    232.33903    91.489608   -599.43806   -3915.4682 
23299000    148.22381   -5069.9284   -4773.4625   -5069.9284            0    8718.7511    17.826049    22.904068    19.075921    7788.4891    7952.9828    8599.3535    9603.9171    264.45768    171.18097    302.29826   -3783.1246 
23300000    148.22332   -5093.5955   -4797.1306   -5093.5955            0    8975.6269    17.814919    22.765024    19.163448    7771.8719    10153.005    8439.6868     8334.189   -334.81915    564.04637   -124.59726   -3779.7901 
23301000    153.67653   -5057.1784   -4749.8063   -5057.1784            0    6831.1745    18.088618    22.501145     19.21094    7819.1332    6995.5303    6526.0838    6971.9094     571.4768   -534.45166    984.09912   -3970.8199 
23302000    145.95205   -5092.0476   -4800.1255   -5092.0476            0    7237.3749    17.864734    22.808967    19.186637    7818.0968    7813.2523    7657.5024      6241.37    32.363682    681.35155    1178.5885   -3974.9278 
23303000    141.50719   -5089.5813   -4806.5494   -5089.5813            0    7917.0725     17.81625    22.793189    19.154786    7778.5506     6430.931    8791.4619    8528.8247    879.15318    849.22028    308.22628   -3908.4195 
23304000      155.045   -5079.1946   -4769.0854   -5079.1946            0    7674.5627    18.003716    22.629565    19.236287    7837.1762    6657.2145     8297.324    8069.1495   -338.35237   -630.84539     665.6789   -3891.9046 
23305000     149.6428   -5063.9571    -4764.653   -5063.9571            0    10415.364    17.758951    22.948239    18.958489    7726.2793    11124.757    9914.4609    10206.874   -11.468079    560.82389    -449.2769   -3591.0513 
23306000    153.14067   -5058.0797   -4751.7795   -5058.0797            0    8684.2681    17.786815    22.595972    19.380243    7789.1209    10084.844    7921.2704    8046.6894    -1586.332   -851.53316   -467.59172   -3765.2784 
23307000    137.06337   -5073.3398   -4799.1962   -5073.3398            0    8672.0186    17.864454    22.530864    19.323652    7777.8003    7910.0219    10270.418    7835.6155    916.60086    386.77479   -180.62317   -3815.5183 
23308000    145.39903   -5077.4038   -4786.5877   -5077.4038            0    7281.8731    17.781927    22.941469    19.120515    7800.0905    6737.0663    8079.5067    7029.0464   -799.75989    1336.1874   -546.36366   -3958.2287 
23309000    152.45598   -5089.5064   -4784.5756   -5089.5064            0    8380.9776    17.839728    22.622668    19.220022    7756.8595    7957.1905    8493.4574    8692.2851    393.10699   -359.44048    1595.0685   -3836.4705 
23310000     147.3778   -5078.4911   -4783.7172   -5078.4911            0    8050.6517    17.796812      22.7824    19.168138       7771.8    7374.7185    8361.7369    8415.4997    675.51144    -234.9037   -1663.6018   -3871.2263 
23311000     151.8877    -5071.012   -4767.2178    -5071.012            0    8442.7249    17.819431    22.789877    19.139976    7772.7948    8590.8886     7849.339     8887.947    292.44071   -611.42652   -354.51929   -3810.1654 
23312000    155.77385    -5066.008   -4754.4411    -5066.008            0    7533.9401    17.889125    22.689598    19.260117    7817.6247    7788.7791    7586.4757    7226.5654   -525.81291   -458.86395    495.40205   -3895.4812 
23313000    153.25705     -5072.72   -4766.1869     -5072.72            0    7670.0966    17.813272     22.85439    19.136867    7790.8383    7337.2404    7586.5039    8086.5455    685.72765   -17.717289   -381.72466   -3894.6999 
23314000    145.00232    -5082.777   -4792.7545    -5082.777            0    6930.3831    17.902586    22.654275    19.286024    7821.8346    6617.1669    7085.3498    7088.6325    402.63754    330.29372    1132.2306   -4002.1819 
23315000    146.27042   -5085.7055   -4793.1466   -5085.7055            0    8150.8716    17.716496    22.917929    19.162472    7780.4504    9732.1517    6931.6774    7788.7858    485.29592    440.95685    1643.2361   -3868.2681 
23316000    151.99368   -5070.7867   -4766.7806   -5070.7867            0     7962.337    17.784912    22.756336    19.275587    7801.2046    7542.8173    8074.8384    8269.3552   -32.124074    203.91094   -1104.6035    -3860.885 
23317000    150.08563   -5090.1664   -4789.9766   -5090.1664            0    9043.8858    17.795492    22.780442    19.137306    7758.0567    9873.8215    8200.6548    9057.1811   -602.61508   -397.01619    622.79087   -3766.7215 
23318000    145.11923   -5070.4877   -4780.2313   -5070.4877            0    7854.4366    17.975443    22.760575    19.035154    7787.8795         7386    7701.2647     8476.045   -523.62256   -764.65264   -22.004442   -3888.1383 
23319000    134.86896   -5077.3939   -4807.6393   -5077.3939            0    7101.6854    17.993765     22.76084    19.080012      7814.28    7401.7893    6292.7626    7610.5044    -372.3111    367.93217   -1343.5109   -3998.3081 
23320000    141.65915   -5061.0609   -4777.7251   -5061.0609            0    8013.3834    17.760256    22.803809    19.253748    7797.7964    8056.9111    8178.6174    7804.6218   -42.010776   -348.27174   -226.12568   -3866.4202 
23321000    151.41331   -5088.9129   -4786.0676   -5088.9129            0    7007.3934    17.825354    22.671788    19.338095    7815.1558    8482.8153    6381.1334    6158.2316    1382.5158     -496.946    1086.8371   -3987.3927 
23322000    158.16061   -5069.7642   -4753.4235   -5069.7642            0    7989.1645    17.837492     22.75156    19.218007    7799.2585    8528.5091    8195.8109    7243.1735    1639.3937    920.21815    593.20686   -3844.7025 
23323000    146.02021   -5092.8029   -4800.7444   -5092.8029            0    8955.9204    17.706087    22.882474    19.131326    7751.2308    9933.2739    8279.8323    8654.6551    157.29816    443.67103    716.44334   -3788.3336 
23324000    146.49199     -5094.89   -4801.8879     -5094.89            0    9552.5539    17.963066     22.49948    19.148886    7739.2071    9133.5284    9940.1162    9584.0172    256.19749   -393.39854    1470.1184   -3723.7064 
23325000    148.39737   -5084.4554   -4787.6423   -5084.4554            0    8083.8666    17.797882      22.7405    19.164033    7756.3113    7766.2484     8633.931    7851.4205    38.946211     22.21557    -1270.885   -3873.2128 
23326000    153.59602   -5079.4825   -4772.2715   -5079.4825            0    8803.1387      17.6682    22.803799    19.226218    7746.2829    9732.9479    8640.3301     8036.138    -891.6116   -31.724103    978.76482   -3777.7669 
23327000    145.75649   -5099.1474   -4807.6164   -5099.1474            0    6796.9762    17.784453    22.747688    19.237946     7782.811     6464.254    6607.0745    7319.6002   -254.70287    -682.4857   -235.82418   -4036.1302 
23328000    153.78102   -5060.4878   -4752.9068   -5060.4878            0    8774.2417    17.878884    22.580754     19.24773     7770.668    9046.8408    9033.3143    8242.5702    116.55283    -976.4249    70.999391   -3758.5463 
23329000     156.0522   -5100.3151   -4788.1914   -5100.3151            0     9450.839    17.813678    22.728036    19.136882    7747.9473    8805.1365     10287.99    9259.3905    399.21765   -467.45187    39.192824   -3720.2857 
23330000    152.75083   -5066.2646   -4760.7441   -5066.2646            0    9804.0073     17.85851     22.75174      19.0798     7752.355     9803.235    9606.7578    10002.029    445.26808    338.55742    234.09549   -3652.3016 
23331000    147.27635   -5072.6121   -4778.0412   -5072.6121            0    8906.3549     18.07795    22.544236    19.105313    7786.4387     8337.115    9039.0057     9342.944    798.35696     1420.235   -939.94194   -3766.6603 
23332000    143.96248   -5091.9485   -4804.0058   -5091.9485            0    7149.3437    17.863871     22.81912    19.152189    7807.1563    8281.7441    7292.0535    5874.2334   -251.88191    193.72387   -502.46801    -3989.986 
23333000     150.7447   -5076.2078   -4774.6998   -5076.2078            0    9491.3325    17.804224    22.720057    19.125747    7736.6134    8505.8237    9410.7966    10557.377   -295.06529   -430.05734    1169.8466   -3703.7873 
23334000    153.26725   -5066.5322   -4759.9788   -5066.5322            0    8100.3741     17.82769    22.534537    19.385966    7788.0937    10155.412    7481.5692    6664.1413   -1064.0949   -788.28838    463.86412   -3839.9273 
23335000    140.90839   -5076.1056   -4794.2714   -5076.1056            0    8221.2082    17.868788    22.737807    19.160954    7785.0389    9977.8602     7517.574    7168.1903    993.62509   -466.90941   -277.42037   -3860.8617 
23336000    145.75927   -5082.1227   -4790.5861   -5082.1227            0    7738.0952      17.6713      23.0561     19.08388    7775.3693    8678.5076    6518.2132    8017.5648    -310.2979   -1239.2666     415.1274   -3913.1187 
23337000    147.02685   -5082.2228   -4788.1509   -5082.2228            0    8621.7591    17.849487    22.666254    19.196514     7766.545    9291.4958    7939.3901    8634.3915    426.53179   -1036.1494    241.37825   -3811.5893 
23338000     146.1571   -5077.0399   -4784.7076   -5077.0399            0    7651.1383    17.954326    22.604912    19.184325    7786.0728    9159.9458    7595.6712    6197.7978    995.77722   -555.76047    989.03699   -3915.9064 
23339000    141.51073   -5094.2729    -4811.234   -5094.2729            0    8450.1497    17.873659    22.862232    19.029184    7775.9286     8445.249    8127.2338    8777.9663    836.87339    932.71557    471.56195   -3852.9537 
23340000    150.03242   -5089.2247   -4789.1413   -5089.2247            0     7827.964    17.984598     22.76817    19.033935    7793.9468    6884.1311    8275.6401    8324.1207    1203.5608    91.985456    791.13114   -3899.3623 
23341000    140.53776   -5072.8949    -4791.802   -5072.8949            0    8546.1188    18.014109    22.557107    19.162406    7786.5704     8499.328    8465.1095     8673.919    162.16059    853.83168   -412.82856   -3821.3121 
23342000    144.43587   -5081.3788   -4792.4892   -5081.3788            0    7137.7572    17.880999    22.738848    19.202859     7807.754    7177.5591    7812.1983    6423.5141   -597.92462    286.53371   -566.91664   -3979.7265 
23343000    148.53997   -5070.0649   -4772.9666   -5070.0649            0    7410.2255    17.940829    22.776988    19.121866    7813.9216    6536.5933    7244.3603    8449.7229    163.48241    474.72775    375.11452   -3928.5119 
23344000    144.52434   -5068.8306   -4779.7641   -5068.8306            0    9996.9113     17.82948    22.826452    19.039998    7748.9703    9788.7005     9432.437    10769.596    662.25431   -513.08427    1069.8297   -3650.0053 
23345000    145.25925   -5097.6423   -4807.1059   -5097.6423            0    8550.3519    17.897883    22.585525    19.227525    7772.4014    8839.5672    8567.8901    8243.5984    426.08548   -904.96976    1169.9312   -3837.9021 
23346000    145.91458   -5069.7531   -4777.9059   -5069.7531            0    7898.4294    17.916833     22.72146    19.180576    7808.3471    8405.9832    7647.6101    7641.6948   -895.98597   -432.56103   -648.64194   -3878.4586 
23347000    154.36417   -5092.4863   -4783.7389   -5092.4863            0    7953.8824    17.929676    22.865081    18.973451    7778.4223    6405.8737    7621.8155    9833.9581   -20.039029   -397.64314    1125.5269    -3881.448 
23348000     145.0702   -5069.7478   -4779.5894   -5069.7478            0    10122.326    17.850399    22.660531    19.168371    7753.5968    10057.984      10875.1    9433.8943   -177.62543     465.0081   -322.85718   -3634.9744 
23349000    140.20257   -5068.8204    -4788.398   -5068.8204            0    8799.4589    17.877633    22.799419    19.111507    7789.8436    8795.5576    8554.0994    9048.7196    1079.9788    421.15887    198.44821   -3788.7189 
23350000    145.76111   -5080.5889   -4789.0487   -5080.5889            0    7303.6605    17.846783    22.592516    19.385368    7816.2529    7628.5225    8417.2879     5865.171    30.012143    1505.4332    156.75459   -3956.4896 
23351000    145.22909   -5097.3751    -4806.899   -5097.3751            0    8590.4574    17.826431     22.75998    19.156038    7772.1643    7560.4423    8682.4887    9528.4412    459.87899    32.244669   -123.55556   -3833.1788 
23352000    146.69185   -5073.4746   -4780.0728   -5073.4746            0    9122.7442    17.821737     22.76206    19.137937     7763.485    10013.496    8237.4949    9117.2421    678.46315   -309.09707    776.97789   -3747.1732 
23353000    148.54466   -5070.3585   -4773.2509   -5070.3585            0    8730.3266    17.930394     22.55162    19.257136    7786.8044    7691.9353     9899.988    8599.0566   -295.83002    825.22706    1522.4886   -3781.8127 
23354000    147.83583    -5070.613   -4774.9231    -5070.613            0    8752.3084    17.840712    22.826073    19.098299    7777.4651    6503.4874    8438.7685    11314.669    344.82948    733.95473     59.31833   -3782.1807 
23355000    152.63659   -5064.0754   -4758.7834   -5064.0754            0    8678.6716    17.937933    22.697965    19.103377     7778.027    7544.8466    9039.3888    9451.7795    212.57925    1.4941708    369.41169   -3774.3222 
23356000     142.8847   -5088.0762   -4802.2892   -5088.0762            0    7633.1663    17.951119    22.550389    19.249056    7792.1085    7823.1466    8075.1385    7001.2139    253.88373   -190.79507   -60.634949   -3934.8569 
23357000    156.70452   -5083.1966   -4769.7682   -5083.1966            0    10040.774    17.652344     22.82601    19.120726    7704.3637    10517.805    10241.469    9363.0474    476.09333    1423.9533   -194.04681   -3641.5844 
23358000    145.17419   -5063.3988   -4773.0325   -5063.3988            0    8492.0046    17.803969    22.780928    19.231511    7800.1266    8501.9897    9045.4762     7928.548   -61.621581    384.85025    438.67186   -3807.0088 
23359000    147.81188   -5087.9144   -4792.2724   -5087.9144            0    7569.7103    17.944548    22.510579     19.30818    7799.3881     7227.084    7527.6784    7954.3685   -1360.6415   -470.24787    1622.9808   -3931.2475 
23360000    152.68971   -5076.9422    -4771.544   -5076.9422            0     8665.669     17.81658    22.797778    19.173747    7787.9629     8867.153    7828.3946    9301.4594   -915.56457   -594.14623     571.5561    -3787.302 
23361000    159.49063   -5085.6628   -4766.6618   -5085.6628            0    7667.5893    17.738931    22.975361    19.151456    7805.3359    8726.7734    6400.7655     7875.229    327.24573   -428.46185    415.38352   -3893.8385 
23362000    144.86379   -5064.8908   -4775.1453   -5064.8908            0    9221.1329    17.973345    22.427744    19.283187    7773.0831    9983.6282    9434.3729    8245.3974   -1035.1496   -577.41453    62.432281   -3729.8152 
23363000    146.98297   -5086.6569   -4792.6728   -5086.6569            0    7874.4569    17.753688    22.924035     19.08957    7769.1911    6942.9816    8301.5667    8378.8223    216.22848   -369.67118   -1297.8539   -3900.4521 
23364000    156.05591   -5085.0015   -4772.8704   -5085.0015            0      8708.27    17.739955    22.766456    19.225609    7764.7602    9691.8224    8794.7491    7638.2384   -259.70763   -77.815855    661.68059   -3786.7366 
23365000    148.33885   -5085.0116   -4788.3155   -5085.0116            0    7383.9638    17.832329    22.672982    19.305819    7805.5757    8221.8481    7530.0964    6399.9469    206.25444   -506.93338   -29.745221   -3947.7523 
23366000    145.18568   -5090.0264   -4799.6371   -5090.0264            0    9149.3624    17.937481      22.7335    19.070867    7776.7513    9039.2145    8874.1979    9534.6747    348.60179    1099.6019   -1162.1263   -3761.9536 
23367000    144.69625   -5090.8493   -4801.4389   -5090.8493            0    8087.3668    17.920949    22.687434    19.125941    7776.2318    7473.3684    8429.0061     8359.726     1038.087    1600.1687    1928.5558   -3884.2639 
23368000    143.51441   -5082.9823   -4795.9358   -5082.9823            0    8078.0568     17.76651    22.761961    19.266626    7791.4352    10256.089    7518.1928     6459.889   -101.77648    -435.0855    668.97162   -3878.0254 
23369000    143.02675     -5084.03   -4797.9588     -5084.03            0    8286.3937    17.864256    22.602242    19.264291     7778.386    9614.3383    8386.8561    6857.9866   -1054.6482    470.87283   -385.80025   -3857.9522 
23370000    148.83946   -5082.6219   -4784.9246   -5082.6219            0    7852.7702    17.900312    22.669546    19.166309    7777.5338    8074.0776    7702.3171    7781.9158   -10.331735   -615.68141   -11.246261   -3894.2057 
23371000    143.44552   -5079.6045   -4792.6958   -5079.6045            0     8652.312    17.794616    22.863676    19.106759    7773.5912     8854.054    8237.9219    8864.9602    199.76722   -1002.5954    808.00789   -3811.7844 
23372000    153.24993   -5071.4299   -4764.9111   -5071.4299            0    8047.8172    17.842642    22.707305    19.228555    7790.6089    7706.6516    7943.6611    8493.1388    427.54283   -1599.4063    653.57345   -3850.5339 
23373000    143.09878   -5068.2696   -4782.0544   -5068.2696            0    9030.4801    17.758025    22.776919    19.179672    7757.6616    9742.6537    7784.9776     9563.809   -1238.0858   -1436.3128     258.1677   -3760.3681 
23374000    151.06662    -5075.791   -4773.6391    -5075.791            0    8818.9024    17.773285    22.720797    19.260964    7778.0242    9938.9273    8812.2198      7705.56   -1050.9132   -193.63507   -809.50445   -3773.2713 
23375000    153.95555   -5079.3049   -4771.3748   -5079.3049            0    7623.9955    17.883408    22.699862    19.253482    7815.9682    7722.8279    7500.3248    7648.8339    485.65137    298.12159    757.02113   -3902.3317 
23376000    152.94898   -5090.7586   -4784.8418   -5090.7586            0    10543.468    17.823701    22.833127      18.9803    7724.4287    11248.738    10457.594    9924.0714    396.28766    177.56913    3426.9015   -3597.0898 
23377000    147.74927   -5091.0975   -4795.5807   -5091.0975            0    7518.5469    17.929603    22.623899    19.209576    7792.1248    6811.9348    7837.1984    7906.5076    822.92772    328.26896   -126.44211   -3941.1719 
23378000     144.6587   -5078.0812    -4788.746   -5078.0812            0    9870.3888    17.826021    22.554518    19.248814    7739.1265    9362.1141    10543.175    9705.8772     55.45668    1030.4687    222.72083   -3674.7026 
23379000    152.30536   -5051.2444   -4746.6148   -5051.2444            0    9920.7982    17.829923     22.70479    19.095158    7730.1906    12441.809    9686.1593    7634.4259    1650.4987    713.27942    621.63616   -3628.1748 
23380000    140.15796     -5079.94   -4799.6068     -5079.94            0    8421.5323     17.93404    22.609897    19.163342    7770.4822    9164.3237     7988.149     8112.124    285.56112   -81.535907    636.08619   -3845.2407 
23381000    148.07635   -5102.5147   -4806.3437   -5102.5147            0    7470.7504    17.824296    22.797035    19.170986    7789.9591    7956.9103    6883.2453    7572.0958    2246.2756    -993.1373    403.00721   -3957.6025 
23382000    158.75276   -5087.7476   -4770.2225   -5087.7476            0    7278.2115    17.821411    22.819883    19.211693    7813.0596     7994.644    7686.6527    6153.3378    513.46957   -285.36701    686.84275   -3940.9033 
23383000    157.66624   -5089.1957   -4773.8438   -5089.1957            0    6963.1711    17.888082    22.777883    19.154793    7804.6708    5653.1704    7415.3739    7820.9691    460.85952   -476.47389    1657.1883   -3981.2739 
23384000     149.7473   -5098.4727   -4798.9596   -5098.4727            0    7355.8612    17.923627    22.707051    19.167035    7800.8436    6419.4848    7640.7864    8007.3125    180.21131   -597.83581   -992.89996   -3962.1031 
23385000    148.03012   -5090.1456   -4794.0671   -5090.1456            0    8033.1205    17.947547    22.684294    19.165069    7802.6254    7215.5459     9116.071    7767.7444    75.293226   -17.093739   -768.07163   -3879.9519 
23386000    154.52725   -5080.9816   -4771.9081   -5080.9816            0     8667.105    17.771103    22.903991    19.078803    7765.6297    10236.444    7011.1063    8753.7648   -122.55156   -1254.2201    1165.5651    -3790.326 
23387000    144.09394   -5079.8574   -4791.6517   -5079.8574            0    9324.5144     17.86822    22.622777    19.192391    7758.1161     10269.48    9527.0975    8176.9655    823.07789    331.15718    792.78265   -3736.6373 
23388000    149.06328   -5079.9702   -4781.8252   -5079.9702            0     9724.226    17.732367    22.792217     19.13346    7732.9784     11030.63    8755.8448    9386.2036    116.63899   -356.87593    1450.1503   -3685.1507 
23389000    140.25472   -5089.4486   -4808.9219   -5089.4486            0    7428.3866    17.863905    22.767547    19.213176    7814.3311    6883.8368    7921.4442    7479.8788   -543.89869   -315.16344    9.6478086   -3962.3532 
23390000    153.69026    -5073.846   -4766.4465    -5073.846            0    10600.732    17.836184    22.615621    19.089423    7700.2226    9974.9893    11602.161    10225.044    587.97698   -323.71476   -972.62113    -3575.986 
23391000    142.85921   -5075.7984   -4790.0623   -5075.7984            0    6906.5348    17.926005    22.834523    19.088002    7813.3258    6685.7637     6330.384    7703.4568   -119.53145   -137.92457   -192.84476   -4003.0672 
23392000    143.99916   -5077.4329   -4789.4167   -5077.4329            0    8197.7618    17.911643    22.668987    19.172171    7784.6453     8785.173    8124.3838    7683.7285   -180.03169   -664.58853    723.68314   -3858.7161 
23393000    148.80967   -5096.2664   -4798.6287   -5096.2664            0    7491.6719    17.831699    22.748674     19.25366    7810.1992    8116.1046    7902.2079    6456.7031   -566.03354     310.8053    457.34206   -3945.2992 
23394000    157.08148   -5095.8389   -4781.6565   -5095.8389            0    8472.8412    17.806428    22.764988    19.167087    7769.6302    8846.2147     8181.673     8390.636    726.32581   -975.64652    -933.1473   -3821.5812 
23395000    144.99766    -5078.346   -4788.3328    -5078.346            0    8555.6309    17.894287    22.556927    19.319416    7798.0916    10419.427    7997.6537    7249.8119   -856.51423   -134.44208     183.0604   -3815.3251 
23396000    149.35502   -5088.3827   -4789.6542   -5088.3827            0    8433.0569    17.656107    22.911911     19.20656    7769.7288    9606.3358    7752.3079    7940.5271   -387.46128    491.95282     113.2903   -3834.0748 
23397000    146.80929    -5096.057   -4802.4203    -5096.057            0    9239.4443    17.854006    22.765228    19.109696     7767.146    9577.7299    9274.3211     8866.282   -721.70488   -133.33617   -951.44676   -3755.8143 
23398000     150.8859   -5096.3491   -4794.5586   -5096.3491            0    7368.6121    17.918609    22.682392    19.157075    7786.1424    7144.4305    6810.9072    8150.4986    836.52963   -520.43374    875.12157   -3957.8313 
23399000    152.91545    -5080.524   -4774.6742    -5080.524            0    7672.5033    17.901139    22.766309    19.177233    7815.5442    8362.9798    7243.0695    7411.4605   -565.08123    738.93153    46.867011   -3900.1493 
23400000    149.14608    -5090.241   -4791.9304    -5090.241            0     7648.624    17.945943    22.720776    19.087692    7782.9255    6886.9256    8018.8342    8040.1123    99.595618    473.35861   -511.79448   -3923.7658 
23401000    153.01799   -5063.6754   -4757.6205   -5063.6754            0    8580.8049     17.89521    22.576244    19.298908    7796.8868    9344.4989    8534.8667     7863.049    667.41382    894.55602   -174.50372   -3781.9006 
23402000    148.37842   -5076.8094   -4780.0342   -5076.8094            0    9437.4134      17.8207    22.806339    19.091213    7759.1447    8765.0151    9182.5143    10364.711    878.17183   -353.86867    1069.3809   -3712.1044 
23403000    145.77291   -5070.4367   -4778.8729   -5070.4367            0    8032.1716    17.912373    22.545405     19.29452    7791.9321    7741.4681    9256.3452    7098.7016    966.54708    225.84585     925.7907   -3866.1183 
23404000    149.82237   -5094.6573    -4794.994   -5094.6573            0    6912.5255    17.888215     22.68155    19.293138    7827.8521    6427.7943    7960.3789    6349.4031    167.67199   -236.86844    461.18349   -4005.8518 
23405000    147.94804   -5085.6805   -4789.7662   -5085.6805            0    9106.4571     17.59257    22.968076    19.228343    7769.5485    10879.037    8282.4938    8157.8408    300.34689     255.0799   -73.592871   -3757.9054 
23406000    146.32261   -5095.3783    -4802.715   -5095.3783            0    8482.4515    17.903865     22.45172     19.30585    7760.4222    7080.6457    9882.5841    8484.1248    363.42774   -214.25283   -213.39052   -3842.6898 
23407000    143.30469   -5077.6829   -4791.0558   -5077.6829            0    8242.0253    17.904247     22.79658    19.095128    7793.7834    7593.6652    8451.4952    8680.9155   -1269.3132   -504.74016   -440.14286   -3854.2315 
23408000    144.72562   -5083.0545   -4793.5854   -5083.0545            0    10093.764    17.875483    22.661024     19.04791    7715.8657    9298.6172    9761.3036    11221.371    242.82519   -445.87041   -443.92676   -3657.7545 
23409000    143.82223    -5082.456   -4794.7938    -5082.456            0    8612.8964    18.030882    22.604759    19.137182    7800.0042    7759.3079    8703.8525    9375.5287    1084.7762    777.47698    1363.3444   -3815.0332 
23410000    153.49626   -5084.6223   -4777.6108   -5084.6223            0    8152.4168    17.957012    22.944938    18.902612    7788.3018    8638.0364    7292.2879     8526.926   -150.41933    1130.1729    464.92628   -3851.6235 
23411000    150.58651   -5099.3053   -4798.1137   -5099.3053            0    8256.8199    17.945822    22.679982    19.101715    7774.6066    9134.5358     7738.982    7896.9421    -276.3007   -56.116929    773.76797   -3861.9169 
23412000    152.69303   -5089.6921   -4784.2872   -5089.6921            0    9014.8618     17.81599    22.759433    19.175716    7775.4046    8648.4207    9007.9918    9388.1728    411.64476    1034.9614   -1193.4718   -3762.0352 
23413000     147.9985   -5086.5166   -4790.5013   -5086.5166            0    8476.8673    17.908589    22.591383    19.215137    7774.0561    8161.9334    8902.0107     8366.658    63.085045    31.755429   -465.55821   -3829.4226 
23414000    146.21561   -5087.8638   -4795.4145   -5087.8638            0    8838.1773    17.842663    22.687444    19.227336    7783.3105    8787.0663    8965.7543    8761.7113    533.81553   -134.97572    599.67435   -3792.1788 
23415000    150.22996   -5091.7861   -4791.3076   -5091.7861            0    8150.6247    17.761073    22.949674    19.040351    7761.0537    8023.7322    7494.3632    8933.7787    1019.7675   -496.58358    256.36014   -3868.7628 
23416000     160.3697    -5082.559   -4761.7998    -5082.559            0    8595.0117    17.847296    22.658401      19.2293    7776.1591    8325.8443    9086.7217    8372.4691   -977.27421   -343.52926   -537.43543   -3787.0627 
23417000    142.41252   -5082.5209   -4797.6783   -5082.5209            0    6705.1175     17.95308    22.681072    19.230827    7830.6985    6372.9474    7119.0205    6623.3847   -173.21685    664.68665    44.761149   -4031.9357 
23418000     144.3726   -5063.6797   -4774.9167   -5063.6797            0    7366.6886    17.806738    22.914946    19.141264    7810.4095    7835.1871    6702.6674    7562.2114    366.82188     438.9401    836.91439   -3935.8007 
23419000    154.40966   -5065.5681   -4756.7297   -5065.5681            0    8711.4757    17.994457    22.678281      19.0135    7759.0926    6259.4351     8492.093    11382.899    320.23911   -397.14492   -1109.4591   -3770.9529 
23420000    145.25565   -5078.0195   -4787.4903   -5078.0195            0    7162.9476    17.966918    22.596951    19.302572     7836.797    6709.1491    7309.9212    7469.7726   -76.392577    -351.2768   -779.29298   -3968.8252 
23421000    146.66508   -5074.7903    -4781.442   -5074.7903            0    7209.7898    17.867599    22.829281    19.167295    7818.4243    7698.7326    6666.2141    7264.4225    633.80333     1014.754   -766.23717   -3959.3551 
23422000    147.25456   -5087.0485   -4792.5212   -5087.0485            0    8032.9777    17.943421    22.825493    18.991512    7778.3048    8363.2324    7266.6343    8469.0662   -42.684818   -152.13015    304.34867   -3881.2715 
23423000    140.54191   -5085.5254   -4804.4242   -5085.5254            0    8684.3193    18.011026    22.615318    19.111953    7784.7776    8167.7936    8460.5132    9424.6509    548.96736    221.80295   -338.69832   -3818.4675 
23424000    148.72865   -5097.6333   -4800.1576   -5097.6333            0    7281.9329    17.904138    22.821028    19.114169    7809.8743    6113.5684    7226.7419    8505.4885    1004.6135   -458.91048    574.47084   -3970.7527 
23425000    143.92051   -5077.0885   -4789.2297   -5077.0885            0    9201.8171    17.849833    22.831009    19.046915    7762.1838    9891.6144    7833.0262    9880.8109    -209.1652    -923.0009    1083.3979   -3747.5519 
23426000    149.11234   -5089.3522   -4791.1091   -5089.3522            0    7247.6265     17.97597    22.672415    19.134832    7798.5663    6221.7016    7521.7685    7999.4094    959.83304     -572.574    363.28816   -3966.8069 
23427000    146.63503   -5063.3441    -4770.056   -5063.3441            0    9719.9095     17.85102    22.735532    19.089177    7747.3889       9168.4    10098.171    9893.1572    489.62053    -173.1383   -202.90831   -3671.8255 
23428000    152.46491   -5084.4535   -4779.5048   -5084.4535            0    8366.4527    17.793135    22.652165    19.307124     7781.795    9443.3734    7564.4998    8091.4849    237.43022     2.120903    356.22508   -3830.0003 
23429000    148.12654   -5068.4977   -4772.2263   -5068.4977            0     9404.575    17.843883    22.682642    19.208853    7774.7143    9980.9975    8585.9613    9646.7661    398.09452   -602.98879   -232.24972    -3705.877 
23430000    142.87232    -5066.173   -4780.4107    -5066.173            0    7929.2288    17.942759    22.575572    19.260898    7801.9746    8927.4063    8088.7843    6771.4956    1687.9762    167.39812   -472.34468   -3878.1929 
23431000     145.1966   -5090.2749   -4799.8638   -5090.2749            0    7232.2618    17.853499    22.898489    19.122785    7817.7416    7254.7872    6847.0748    7594.9232   -1222.6523    755.99909    1568.1314   -3975.2866 
23432000    145.89445   -5077.4363   -4785.6293   -5077.4363            0    8028.9225    17.890007    22.703562    19.229334    7810.3187    7643.8995    8514.7815    7928.0866    -65.68248     411.9493   -808.43153    -3871.091 
23433000    142.51847   -5083.3817   -4798.3271   -5083.3817            0    8947.3818    17.893312    22.582654    19.220183    7766.4624    10182.652    8764.2772    7895.2164   -493.44343   -1031.3202    -894.7762    -3784.894 
23434000    148.42167   -5105.7956    -4808.934   -5105.7956            0    6156.5415     17.85789    22.964396    19.091894    7829.5029    6264.8741    6138.6394     6066.111   -523.35251   -159.18701    205.94155   -4105.9476 
23435000    159.28863   -5087.1871   -4768.5902   -5087.1871            0    8106.6616    17.935682    22.742084    19.114225    7796.5924    8497.3623    7343.7359    8478.8868    -689.8651   -627.43985    494.30268   -3846.8198 
23436000    149.98237   -5078.7827   -4778.7994   -5078.7827            0    8252.9021    17.832445    22.707757    19.227255    7785.7851    8015.9765    7492.0529    9250.6769    656.87849   -1775.6636    1256.8808   -3841.7015 
23437000     145.3302   -5085.5533    -4794.875   -5085.5533            0    8160.1911    17.716445    23.000736    19.106091    7785.5652    9210.2191      7473.29    7797.0643    169.84823   -101.74761    1044.2251   -3868.3303 
23438000    152.55053   -5080.1302   -4775.0103   -5080.1302            0    8622.1709    17.971215    22.575341    19.141653    7765.8893    8518.8368    8457.0453    8890.6306    22.612303   -42.922601   -468.47264   -3798.4845 
23439000     138.8736   -5077.3771   -4799.6127   -5077.3771            0    9271.7998    17.814623    22.913832    18.987904    7750.8869    8639.7044    8738.7705    10436.924    521.78314    1187.5064   -1217.6211   -3751.5402 
23440000    153.40398   -5068.4911   -4761.6642   -5068.4911            0    7749.3675    17.901273    22.742209    19.135941    7790.5189    7900.4608    7676.6214    7671.0204    796.63905    959.90746   -780.47198   -3881.2064 
23441000    156.11295   -5088.7796   -4776.5344   -5088.7796            0    8156.1558    18.093946    22.482806    19.139359    7785.9428    6995.0788    9233.2899    8240.0988   -66.406841    718.40103   -472.12303    -3850.403 
23442000     145.4578   -5070.0599   -4779.1264   -5070.0599            0    8365.6835    17.850196    22.961727    18.964904    7773.1706    6855.9934    8661.5716    9579.4855    968.84681    671.30771   -186.71777   -3830.7614 
23443000    141.81726   -5074.4655   -4790.8134   -5074.4655            0    7042.1389    17.869644    22.667515    19.287422    7812.5714    6698.5711    6767.4994    7660.3461    1162.2087    -220.3152   -518.16597   -3988.4438 
23444000    154.21507   -5086.1137   -4777.6645   -5086.1137            0    7749.4881    17.763817     22.81885    19.198727    7782.2016    8151.5567    7860.8579    7236.0497   -201.11305   -89.878005   -504.48741    -3898.133 
23445000    147.63491   -5071.2137   -4775.9257   -5071.2137            0    9800.7761    17.755383    22.766832    19.186046    7755.6486    9515.9842    10361.394      9524.95    1577.3391   -563.29308    295.48913   -3667.3777 
23446000    142.62751   -5080.9901   -4795.7175   -5080.9901            0    7122.1703    17.836172    22.907485    19.124845    7814.0643    6759.8732    6576.3947    8030.2429   -483.91262   -757.91894    266.84041   -3984.0741 
23447000    149.13931   -5083.0143   -4784.7173   -5083.0143            0    7517.8458    17.867254    22.797957    19.131363    7792.9096    7446.8491    7486.0933    7620.5951   -620.72148   -11.679887   -236.96996   -3930.3021 
23448000     144.5483   -5074.3381   -4785.2237   -5074.3381            0    8607.1269    17.941585    22.672608    19.132853    7782.9105    8104.4883    9074.2605    8642.6319    75.340341   -265.63546     878.2397   -3808.2651 
23449000    147.65959   -5079.3709   -4784.0335   -5079.3709            0    7669.9817    17.893934     22.85907    19.139554    7828.8179    6268.3012    8761.0513    7980.5926    837.40031      1573.19    1573.3541   -3908.3112 
23450000    142.82017   -5077.0553   -4791.3974   -5077.0553            0    8824.5865    17.929913     22.72184    19.085126    7775.2922    8138.3685    8698.9395    9636.4517   -1379.6998    1331.3218   -158.25681   -3790.7364 
23451000    154.95743   -5095.6394   -4785.7054   -5095.6394            0    7216.4179    17.849061    22.675981    19.219931    7779.1702    8051.7512    7393.2012    6204.3012    182.92647    298.49526    1406.5274    -3966.994 
23452000    143.88448   -5072.9245   -4785.1378   -5072.9245            0    9044.6863    17.767846    22.714165    19.280908    7781.4233    8254.0911    9632.1531    9247.8148   -1.5773853    870.01755    945.78536   -3758.7099 
23453000    144.36957   -5089.4396   -4800.6826   -5089.4396            0    8441.5436    17.839955     22.80713    19.106259    7773.9196    7042.9277    8809.0258    9472.6771    806.92454    552.90062    167.51797   -3843.6256 
23454000    149.20297   -5106.4009   -4807.9765   -5106.4009            0    8013.4519    17.872747    22.818708    19.126828    7800.5512    7755.5091    8343.7387    7941.1079    82.599902    492.51798    1063.7449   -3896.3419 
23455000    144.46587   -5091.2128   -4802.2633   -5091.2128            0    8604.7949    17.721281    22.686024    19.327132     7769.998    8816.3533    8880.3148    8117.7167     82.48565   -397.80152    1273.0059   -3827.1898 
23456000      138.475   -5072.6505   -4795.6834   -5072.6505            0    7337.1973    17.839078    22.714207    19.248717    7799.5901    8613.6487    6910.6534    6487.2897     114.7103   -1610.6658    1258.2901   -3961.0844 
23457000    152.09719   -5085.5135   -4781.3003   -5085.5135            0    8042.5218     17.78815    22.750252    19.188734    7765.3905    8319.3087    7770.3173    8037.9392    894.51078   -953.06513   -918.62517   -3870.4827 
23458000    150.54888   -5073.7367   -4772.6203   -5073.7367            0    7803.6316    17.687819    22.934407    19.203251     7789.984    9125.6117     7787.633    6497.6502   -1264.4489    291.21394   -528.89829   -3886.0581 
23459000    145.04886   -5073.1372   -4783.0216   -5073.1372            0    8388.5885    17.778981    22.633111    19.325111    7776.3018    9443.2537    8355.4195    7367.0923    607.08569   -331.24655    1033.6609   -3831.6769 
23460000     157.3243   -5088.1585   -4773.4905   -5088.1585            0    9045.2966    17.816301    22.555797    19.325305    7766.0837     10055.13     9406.816    7673.9435   -169.80802    1258.1855    134.09108   -3749.0169 
23461000    147.19196   -5072.7121     -4778.31   -5072.7121            0    8910.4489    17.666669    22.882535    19.198806    7761.2741     10648.48    8242.8278    7840.0393   -1303.0945   -609.72077   -615.60352   -3769.7343 
23462000    144.58829   -5075.1535    -4785.959   -5075.1535            0    8966.7084    17.836872    22.592841     19.26797    7764.7148    8529.2194    9143.8239    9227.0818   -764.96824    313.69817   -682.23532   -3770.5654 
23463000    145.81908   -5080.9575   -4789.3013   -5080.9575            0    7591.8004    17.891987    22.687524    19.244569    7811.8494    9033.9469    7416.1855    6325.2689    112.94637    251.53731    1213.1516   -3924.3841 
23464000    145.69642   -5080.3355   -4788.9246   -5080.3355            0    8797.3594    17.733796    22.912597    19.106011    7763.2943     9994.748    7989.0753    8408.2548    560.71519    603.15639   -819.55239   -3792.8904 
23465000    140.77559   -5094.0542   -4812.4856   -5094.0542            0    7540.3415    17.892899    22.600613    19.242388    7781.4391    7028.3785    7649.9702    7942.6756   -20.115405   -709.34973   -207.34904   -3956.7752 
23466000    144.24019   -5078.4132    -4789.915   -5078.4132            0    8085.3046    17.859039    22.767805    19.138176    7781.7951    6641.0824     8303.749    9311.0825    107.21282   -114.20328    787.55004   -3872.3178 
23467000    140.02311   -5086.8034   -4806.7399   -5086.8034            0    7834.4406    17.835239    22.770434    19.193484    7794.7836    9221.4497    7169.1619    7112.7101   -32.908017   -624.29279    215.09409   -3916.1292 
23468000    152.20299   -5078.6597   -4774.2349   -5078.6597            0    8860.5394    17.878694     22.64765     19.21595    7780.7381    9294.7627    8341.7527    8945.1029   -260.02164    -1105.511   -412.11192   -3768.7933 
23469000    145.63368   -5076.4847   -4785.1993   -5076.4847            0    9361.8542    17.730635    22.764599    19.196779    7748.4108    9904.8275    8673.9239    9506.8111    184.86747    -25.75525   -426.28215   -3727.2852 
23470000    148.14944   -5096.1043   -4799.7871   -5096.1043            0    9400.3637     17.74319    22.819118    19.150715    7753.8169    9489.2265    9316.6655     9395.199    605.05681    551.53667   -204.21193   -3736.7802 
23471000    146.10536   -5085.5015   -4793.2727   -5085.5015            0    7181.0304    17.834484    22.649696    19.341065     7812.739    6560.4351    8049.2242    6933.4318   -430.29518    -24.44883   -1532.9427   -3975.0605 
23472000    141.90367   -5092.0634   -4808.2385   -5092.0634            0    8805.0916    17.737753    22.756919    19.265746     7776.746    9854.7475    8647.9714    7912.5558    4.3279542    206.55329   -363.65544   -3809.6015 
23473000    140.05277   -5088.1799   -4808.0571   -5088.1799            0     6367.257     17.79087    23.033825    19.075019    7816.7862    4916.6771    6468.9536    7716.1402    382.56514   -740.78518    844.42122    -4082.191 
23474000    149.70945   -5087.3896   -4787.9522   -5087.3896            0    8606.4859    17.882716    22.781337    19.125482    7791.5717    7793.1406    8205.8212     9820.496    76.730855   -147.75263    1077.2168   -3809.9793 
23475000    146.42579   -5094.8813   -4802.0116   -5094.8813            0    6503.3613    17.884126    22.678479    19.283499    7821.0937    7210.1557    7009.8101    5290.1179    58.058765   -186.58636   -737.48212   -4060.2212 
23476000    143.70794   -5083.6376    -4796.204   -5083.6376            0    6403.2283    17.795731    22.935945    19.163357    7821.7524    7565.8844    6616.0967    5027.7039    496.69805    112.06825    1246.4681   -4065.7734 
23477000    159.69815   -5074.9064   -4755.4903   -5074.9064            0    7614.1773    17.917132    22.662871    19.252024    7817.3549    9223.3568    7419.3404    6199.8347    296.18694    621.01133    150.99323   -3887.4124 
23478000    148.70548   -5066.3723    -4768.943   -5066.3723            0    8694.0738    17.949559    22.705594    19.106034    7786.7674    6693.7747    9425.5541    9962.8926    132.20987    719.10741     855.0811   -3781.6265 
23479000     152.2913   -5078.1639   -4773.5625   -5078.1639            0    9311.9077    17.921406    22.841642    18.964779    7763.3148    7035.0213    9169.7463    11730.956   -619.14863     1136.662   -561.71016   -3719.2685 
23480000    149.88084   -5065.0181   -4765.2379   -5065.0181            0    7838.2286    18.001275     22.60817     19.18935    7809.6025    8155.2881    7862.3292    7497.0686       736.76    948.88344    53.600127   -3872.5025 
23481000    154.61557   -5082.5929   -4773.3426   -5082.5929            0    8204.0107    17.851545     22.74905    19.147252    7775.8082     8328.243    7895.4535    8388.3355    1399.9776   -757.47459    314.96731   -3842.9899 
23482000    148.14571   -5082.0829   -4785.7732   -5082.0829            0    7572.0041    17.872676     22.81685    19.164373    7815.1963     8098.553    8070.1375    6547.3219    12.851805    918.53432    881.02937   -3922.7417 
23483000    143.70438   -5086.5099   -4799.0834   -5086.5099            0    7822.3327    17.975763    22.587953    19.231809    7808.8006    6461.4675    8911.1235     8094.407    399.32433   -507.90855    17.141917     -3908.25 
23484000    155.17584   -5086.8882   -4776.5174   -5086.8882            0    8710.6661    17.669564     22.95054    19.162336    7770.8261    10942.477     8376.208    6813.3135     338.0733    876.22767    1562.0836   -3789.3417 
23485000    146.65675   -5094.4825   -4801.1509   -5094.4825            0    7988.4824    17.807718    22.719717    19.218234    7775.4346    7605.7902    7879.1343    8480.5226    47.647945   -725.52748    212.89916    -3895.283 
23486000    146.15778   -5082.1246    -4789.791   -5082.1246            0    9863.6202    17.841992    22.664806    19.153859    7745.5388    8159.4826    10314.443    11116.935     2213.657   -198.96977    795.39984   -3675.5892 
23487000    152.62388   -5096.0525   -4790.7858   -5096.0525            0     8663.051    17.768437    22.947391    19.040074    7763.3864    9352.7376    7930.2079    8706.2074   -106.89627     683.9262    2757.1726   -3809.9463 
23488000    144.72053   -5064.4304   -4774.9714   -5064.4304            0    8977.4938    17.828786    22.594809    19.234335    7748.3212     9033.497    9617.0147    8281.9697    211.44952    970.49589   -204.58998   -3760.5028 
23489000    153.87682   -5088.8314   -4781.0588   -5088.8314            0    7979.0689    17.794572    22.787908    19.220833    7794.0684     9025.056    7498.7543    7413.3963    733.97139    409.87074    824.97483     -3874.09 
23490000    145.35483   -5062.5024   -4771.7748   -5062.5024            0    8470.6836    17.918504    22.852577    18.961628    7764.4829    6942.9827    8579.6751    9889.3931    788.89871    86.284743     734.9668   -3812.5798 
23491000    145.11638   -5087.0492   -4796.7985   -5087.0492            0    8159.3889    18.006779    22.648161    19.102673    7790.4601    10096.151     7438.512    6943.5033     113.6837   -385.52746    500.58022   -3869.7625 
23492000    148.68013    -5094.756   -4797.3774    -5094.756            0     6283.287    17.896813    22.839542    19.165971    7834.1866    7185.5206     5241.811    6422.5294    1857.0483   -495.20391    1729.2736   -4079.4894 
23493000    148.84899   -5070.8465   -4773.1301   -5070.8465            0    7365.0387    17.904752    22.686971    19.216284    7805.7428    7510.3914    7766.4499    6818.2747   -894.65382     1030.937   -638.04571   -3934.7033 
23494000    148.10481   -5064.5765   -4768.3486   -5064.5765            0    9845.9653    17.886193    22.819491    18.999041    7754.5313    9158.7645    9371.1547    11007.977   -453.10732   -730.37948   -525.47464   -3654.8498 
23495000    155.40545   -5075.4516   -4764.6215   -5075.4516            0     7359.642    17.928962    22.844441    19.059691    7806.4131    7188.1966    7285.6565    7605.0728    608.75768   -302.46787   -291.26506   -3926.7371 
23496000    146.32124   -5082.3105     -4789.65   -5082.3105            0    6869.7082    18.068423    22.667518    19.119282    7830.6137    5205.2247     7327.058    8076.8421    497.97207   -235.54921    1726.0944   -4005.1192 
23497000    143.87354   -5073.6449   -4785.8801   -5073.6449            0    9215.0984    17.848121    22.800729    19.087733    7767.7564     9405.004    8946.6257    9293.6656   -442.05608   -435.59353    902.58672   -3741.9499 
23498000     150.2996   -5075.1899   -4774.5722   -5075.1899            0    7409.7845    17.953676    22.740041    19.167017    7825.2671    7764.6192    7260.4635    7204.2708    662.69674    408.83068    956.15257   -3928.9417 
23499000    140.93764   -5079.4868   -4797.5941   -5079.4868            0    6909.2662    17.908007    22.632681    19.319574    7830.3429    7955.1646    6631.2312    6141.4027    1578.2597     266.0959    2195.8174   -4008.5731 
23500000    156.56599   -5083.0551   -4769.9038   -5083.0551            0    7746.5529    17.805929    22.814434    19.186856    7794.3186     7072.543    8761.4386    7405.6771    306.07954    861.24202   -647.81636   -3889.3366 
Loop time of 571.884 on 64 procs for 250000 steps with 1008 atoms

Performance: 75.540 ns/day, 0.318 hours/ns, 437.152 timesteps/s
374.0% CPU use with 16 MPI tasks x 4 OpenMP threads

MPI task timing breakdown:
Section |  min time  |  avg time  |  max time  |%varavg| %total
---------------------------------------------------------------
Pair    | 42.523     | 44.742     | 48.461     |  22.5 |  7.82
Bond    | 1.6453     | 1.9031     | 2.5142     |  18.3 |  0.33
Kspace  | 275.04     | 282.58     | 290.08     |  25.3 | 49.41
Neigh   | 1.8281     | 1.9589     | 2.133      |   6.5 |  0.34
Comm    | 78.653     | 87.704     | 93.694     |  47.3 | 15.34
Output  | 0.46734    | 0.46765    | 0.46895    |   0.1 |  0.08
Modify  | 119.17     | 122.6      | 127.17     |  23.1 | 21.44
Other   |            | 29.93      |            |       |  5.23

Nlocal:        63.0000 ave          66 max          59 min
Histogram: 1 1 0 0 4 4 0 2 3 1
Nghost:        3458.75 ave        3480 max        3436 min
Histogram: 2 1 0 2 1 4 1 3 1 1
Neighs:        21428.5 ave       22501 max       20010 min
Histogram: 1 1 0 1 3 3 1 2 3 1

Total # of neighbors = 342856
Ave neighs/atom = 340.13492
Ave special neighs/atom = 2.0000000
Neighbor list builds = 3939
Dangerous builds = 0

unfix		3
unfix		2
unfix		1

write_data	data.final.${pid}
write_data	data.final.1
System init for write_data ...
PPPM initialization ...
  extracting TIP4P info from pair style
  using 12-bit tables for long-range coulomb (../kspace.cpp:340)
  G vector (1/distance) = 0.37951895
  grid = 24 27 32
  stencil order = 5
  estimated absolute RMS force accuracy = 0.0024366416
  estimated relative force accuracy = 7.3378737e-06
  using double precision FFTW3
  3d grid and FFT values/proc = 7875 1344
Last active /omp style is kspace_style pppm/tip4p/omp
WARNING: Not all mixed pair coeffs generated from mixing. Use write_data with 'pair ij' option to store all pair coeffs. (../write_data.cpp:312)

write_restart   restart.lmp.${pid}
write_restart   restart.lmp.1
System init for write_restart ...
PPPM initialization ...
  extracting TIP4P info from pair style
  using 12-bit tables for long-range coulomb (../kspace.cpp:340)
  G vector (1/distance) = 0.37951895
  grid = 24 27 32
  stencil order = 5
  estimated absolute RMS force accuracy = 0.0024366416
  estimated relative force accuracy = 7.3378737e-06
  using double precision FFTW3
  3d grid and FFT values/proc = 7875 1344
Last active /omp style is kspace_style pppm/tip4p/omp
Total wall time: 0:09:32
