LAMMPS (30 Jul 2021)
Processor partition = 1
  using 2 OpenMP thread(s) per MPI task
using multi-threaded neighbor list subroutines
variable        pid world 0 1
variable        phase world IceIh IceIII

shell cd ${phase}
shell cd IceIII
include Restart.lmp
echo both
log log.lammps
#include		in.partitions
include		in.temp
variable        temperature equal 45.22
variable	tempDamp equal 100.0
include		in.pressure
variable        pressure equal 2144.8
variable        pressureDamp equal 1000.0 # This is 1 ps
include		in.seed
variable        seed equal 745823

units		real
atom_style	full

read_restart	restart.lmp.${pid}
read_restart	restart.lmp.1
Reading restart file ...
  restart file = 30 Jul 2021, LAMMPS = 30 Jul 2021
  restoring atom style full from restart
  orthogonal box = (0.065377822 0.031981551 0.0078768465) to (19.934623 19.968019 20.692121)
  2 by 4 by 4 MPI processor grid
  restoring pair style lj/cut/tip4p/long/omp from restart
  restoring bond style harmonic/omp from restart
  restoring angle style harmonic/omp from restart
  972 atoms
  648 bonds
  324 angles
Finding 1-2 1-3 1-4 neighbors ...
  special bond factors lj:    0        0        0       
  special bond factors coul:  0        0        0       
     2 = max # of 1-2 neighbors
     1 = max # of 1-3 neighbors
     1 = max # of 1-4 neighbors
     2 = max # of special neighbors
  special bonds CPU = 0.002 seconds
  read_restart CPU = 0.008 seconds
include 	in.setup
variable	out_freq equal 1000
variable	out_freq2 equal 10000
variable	out_freq3 equal 1000

timestep	2.0

neigh_modify    delay 7 every 1

include		in.tip4p
# This is TIP4P/Ice

# create groups ###
group ox type 2
324 atoms in group ox
group hy type 1
648 atoms in group hy

# set charges - beside manually ###
set group ox charge -1.1794
Setting atom values ...
  324 settings made for charge
set group hy charge 0.5897
Setting atom values ...
  648 settings made for charge

# ### TIP3P Potential Parameters ###
pair_style lj/cut/tip4p/long/omp 2 1 1 1 0.1577 8.5
pair_coeff 1 1*2 0.000 0.000
pair_coeff 2 2 0.21084 3.1668
bond_style  harmonic
bond_coeff  1 450 0.9572
angle_style harmonic
angle_coeff 1 55 104.52
kspace_style pppm/tip4p/omp 1.0e-5
pair_modify tail yes

thermo          ${out_freq}
thermo          1000
thermo_style    custom step temp pe etotal epair emol press lx ly lz vol pxx pyy pzz pxy pxz pyz enthalpy

restart 	${out_freq3} restart.lmp.${pid} restart2.lmp.${pid}
restart 	1000 restart.lmp.${pid} restart2.lmp.${pid}
restart 	1000 restart.lmp.1 restart2.lmp.${pid}
restart 	1000 restart.lmp.1 restart2.lmp.1


include         in.dump
dump            myDump all atom ${out_freq2} dump.water.${pid}
dump            myDump all atom 10000 dump.water.${pid}
dump            myDump all atom 10000 dump.water.1
dump            myDump2 all dcd ${out_freq2} dump.dcd
dump            myDump2 all dcd 10000 dump.dcd
dump_modify     myDump append yes
dump_modify     myDump2 append yes


variable natoms 	equal  "count(all)"                        # NUMBER ATOMS
variable H      	equal  "enthalpy/v_natoms"                 # ENTHALPY-per-atom
variable Vol      	equal  "vol/v_natoms"                 # volume-per-atom
fix AVG all 		ave/time ${out_freq} 1 ${out_freq} v_Vol v_H file vol_enthalpy.dat
fix AVG all 		ave/time 1000 1 ${out_freq} v_Vol v_H file vol_enthalpy.dat
fix AVG all 		ave/time 1000 1 1000 v_Vol v_H file vol_enthalpy.dat


timer           timeout 02:55:00 every 1000
New timer settings: style=normal  mode=nosync  timeout=02:55:00

fix 		1 all shake 1e-6 200 0 b 1 a 1
Finding SHAKE clusters ...
       0 = # of size 2 clusters
       0 = # of size 3 clusters
       0 = # of size 4 clusters
     324 = # of frozen angles
  find clusters CPU = 0.001 seconds
fix             2 all nph aniso ${pressure} ${pressure} ${pressureDamp}
fix             2 all nph aniso 2144.8 ${pressure} ${pressureDamp}
fix             2 all nph aniso 2144.8 2144.8 ${pressureDamp}
fix             2 all nph aniso 2144.8 2144.8 1000
fix             3 all temp/csvr ${temperature} ${temperature} ${tempDamp} ${seed}
fix             3 all temp/csvr 45.22 ${temperature} ${tempDamp} ${seed}
fix             3 all temp/csvr 45.22 45.22 ${tempDamp} ${seed}
fix             3 all temp/csvr 45.22 45.22 100 ${seed}
fix             3 all temp/csvr 45.22 45.22 100 745823


run             250000
PPPM initialization ...
  extracting TIP4P info from pair style
  using 12-bit tables for long-range coulomb (../kspace.cpp:340)
  G vector (1/distance) = 0.37281467
  grid = 24 24 25
  stencil order = 5
  estimated absolute RMS force accuracy = 0.0033585079
  estimated relative force accuracy = 1.0114047e-05
  using double precision FFTW3
  3d grid and FFT values/proc = 3458 576
Last active /omp style is kspace_style pppm/tip4p/omp
Neighbor list info ...
  update every 1 steps, delay 7 steps, check yes
  max neighbors/atom: 2000, page size: 100000
  master list distance cutoff = 10.8154
  ghost atom cutoff = 10.8154
  binsize = 5.4077, bins = 4 4 4
  1 neighbor lists, perpetual/occasional/extra = 1 0 0
  (1) pair lj/cut/tip4p/long/omp, perpetual
      attributes: half, newton on, omp
      pair build: half/bin/newton/omp
      stencil: half/bin/3d
      bin: standard
Setting up Verlet run ...
  Unit style    : real
  Current step  : 41500000
  Time step     : 2
  Walltime left : 2:54:59.92
Per MPI rank memory allocation (min/avg/max) = 10.19 | 10.20 | 10.21 Mbytes
Step Temp PotEng TotEng E_pair E_mol Press Lx Ly Lz Volume Pxx Pyy Pzz Pxy Pxz Pyz Enthalpy 
41500000    49.787414    -5154.273   -5058.2538    -5154.273            0    2218.3713    19.869245    19.936038    20.684244    8193.3193    2150.6881    2664.4246    1840.0013   -277.27093    72.321005   -614.62035    -4793.178 
41501000    45.293553   -5164.0528   -5076.7004   -5164.0528            0     2908.272    20.023588    19.803589    20.613102    8173.8968    1291.4144    3767.3213    3666.0803    382.10439   -273.96834   -585.49022   -4730.0114 
41502000      44.7652    -5163.066   -5076.7325    -5163.066            0    2382.3558    19.843401     19.96401    20.698867    8199.9361    2781.4322    1620.6329    2745.0023    26.908496    301.77349    90.619015   -4791.8322 
41503000    45.767171   -5167.2809   -5079.0151   -5167.2809            0    1769.0851    19.883533    19.865474    20.737842    8191.3606    1551.8518    1971.5499    1783.8536    109.07685     428.3632    483.06864   -4867.6756 
41504000    42.998711   -5164.9709   -5082.0443   -5164.9709            0    2441.0497    19.771483    19.949439    20.694641    8162.5872    2874.1773    1553.3967    2895.5752    -417.2434    90.860646     171.7493   -4791.4545 
41505000    46.166968   -5165.4313   -5076.3944   -5165.4313            0    2039.5561    19.901511    19.923927    20.668191    8195.2738    2098.7151    1920.3783    2099.5751    374.35684     277.7917    -165.5183   -4832.6273 
41506000    45.056388   -5159.8945   -5072.9995   -5159.8945            0    1793.5869    19.856152    19.964081    20.651532      8186.47    814.18791    2230.7521    2335.8206   -87.595701    547.59036    167.25955   -4858.8609 
41507000    46.616598   -5166.4059   -5076.5019   -5166.4059            0    2049.1114    19.881578    19.891266    20.665865    8172.7249    1808.7577    2429.4656    1909.1109   -105.37528    493.33398    211.59192   -4832.2667 
41508000    45.876515   -5164.7908   -5076.3141   -5164.7908            0    1941.8336    19.901521    19.908103    20.647104     8180.414    1822.6608    1915.1496    2087.6904   -97.020562   -292.62272    128.67573   -4844.6476 
41509000    46.052026    -5159.093   -5070.2778    -5159.093            0    2035.0222    19.839125    20.006439     20.60191    8177.1092    1965.6475    1746.2595    2393.1596   -397.56096    308.38073   -215.74038   -4827.5917 
41510000    46.620824     -5163.86   -5073.9478     -5163.86            0    1755.2064    19.939434    19.913507    20.649186    8199.0497     1433.115    1362.5521    2469.9522   -153.02776     225.0503    337.18091   -4864.0695 
41511000    45.433157   -5164.1929   -5076.5712   -5164.1929            0    2510.7475    19.917662    19.879128    20.671462    8184.7776     2061.642    2819.5357    2651.0649   -64.279679   -377.85437    628.97671   -4776.8719 
41512000    46.619527   -5159.1356   -5069.2259   -5159.1356            0    2016.9969    19.934936    19.969824    20.666891    8227.4305    2314.4664    1807.9253    1928.5988   -343.91834     141.6606      173.216   -4827.2092 
41513000     48.62604   -5163.9798   -5070.2004   -5163.9798            0    1514.3024    19.959581    19.919917    20.634209    8204.0208    1458.3606    1572.0488    1512.4977   -66.543119    357.31334   -552.19038   -4889.0183 
41514000    43.920693   -5163.8414   -5079.1367   -5163.8414            0    1707.0016    19.942933    19.968139    20.622765    8212.4645    2883.6604    887.21964    1350.1247   -126.75674     701.6852   -486.30939   -4874.6885 
41515000    45.634389   -5164.5535   -5076.5437   -5164.5535            0    1827.4219    19.957831     19.92663    20.631745    8205.0864    1410.9032    2177.9753    1893.3873   -139.05362    498.13411    11.602204   -4857.8694 
41516000    45.357135   -5162.4997   -5075.0247   -5162.4997            0    2449.7656    19.974143    19.914296    20.559498    8177.9718    2198.4144    2166.9408    2983.9415   -247.42787    417.05924    1.0673417   -4782.8477 
41517000    45.623204   -5164.1241   -5076.1359   -5164.1241            0    2042.6871    20.038876     19.76082    20.695128    8194.9525    1542.5836    2634.9988    1950.4789    233.11718   -292.84248    427.73965   -4832.0042 
41518000     43.04354   -5164.7333   -5081.7202   -5164.7333            0    1682.1056    19.949077    19.878733    20.698086    8208.0825    2762.4003    976.08252    1307.8339    42.636081    121.12557    45.380959   -4880.3613 
41519000    44.383062   -5162.0048   -5076.4083   -5162.0048            0    2130.4401    19.956959    19.867759    20.587381    8162.8978    2721.9107    1757.5812    1911.8283   -62.729864    457.77726     561.0707   -4822.7847 
41520000    44.773157   -5164.1492   -5077.8004   -5164.1492            0    1751.2434    19.923924    19.882186    20.667693    8187.1172    1960.9067    1752.2044     1540.619    140.59781    368.83475    223.66792   -4868.7007 
41521000    43.959863   -5168.0043    -5083.224   -5168.0043            0    1770.2288     19.96019    19.878549    20.687569    8208.4055     786.0347    2404.5418    2120.1099   -166.99429    399.16086     219.5041   -4871.3078 
41522000    45.526226   -5164.4233   -5076.6221   -5164.4233            0    2102.0224      19.9295    19.838219    20.693762     8181.605    2376.7728    1558.4398    2370.8547  -0.29839312    203.49714    86.594639   -4825.8082 
41523000     46.60582   -5170.9101   -5081.0269   -5170.9101            0    2141.4854    20.011278    19.864725    20.593843    8186.4344    1810.8108    2528.9342    2084.7111    -258.5999   -329.69371    141.43547   -4825.3534 
41524000    46.961781   -5156.8524   -5066.2827   -5156.8524            0    2652.2379    19.930365    19.884389    20.614723    8169.6796    2593.2608    2577.0882    2786.3646   -152.01461    756.36238    145.52764   -4750.2781 
41525000    46.295959   -5159.1038   -5069.8182   -5159.1038            0    3034.5607    19.913996    19.863854    20.636496    8163.1522    2393.9273    3370.7095    3339.0452   -328.47142    136.49824     16.07239   -4708.5501 
41526000    46.739933   -5160.2669   -5070.1251   -5160.2669            0    2546.6654    19.910242    19.815644    20.695914    8165.2474    1985.7293    2941.5115    2712.7556   -127.96448   -519.71012   -184.06009   -4766.8637 
41527000    48.850019   -5164.4244    -5070.213   -5164.4244            0    2347.4147    19.900502     19.91356    20.672462    8192.2866    1667.1488    2860.8067    2514.2887   -180.23875    216.51583    238.99406   -4789.7531 
41528000    43.339992    -5163.743   -5080.1582    -5163.743            0    1684.4018    19.963686    19.951102    20.550599     8185.253    929.44257    2237.6157     1886.147    261.62974     6.327345    469.06478   -4879.0853 
41529000    45.962114   -5164.1178    -5075.476   -5164.1178            0    2074.1695    19.964292    19.825844    20.681718    8186.0088    2100.5449    1695.1686    2426.7949     234.8237    142.81053    557.59401   -4827.8522 
41530000    45.975894   -5163.4609   -5074.7925   -5163.4609            0      2053.89    19.888648    19.865108    20.785472    8212.1352    2833.6502    1917.5508     1410.469   -61.643608    440.00538    93.057793   -4828.8072 
41531000    46.660126   -5161.4939    -5071.506   -5161.4939            0    2121.3551    19.914315    19.886329    20.720461     8205.771    2325.8399     1929.381    2108.8444   -318.88744    95.104243   -128.51711   -4817.6376 
41532000    45.253759   -5160.3027    -5073.027   -5160.3027            0    2045.8882    19.882857    19.962955    20.690274    8212.3956    2298.9289    1990.7059    1848.0296    111.97932    651.56081   -249.65397   -4827.9922 
41533000    45.788778   -5162.8844   -5074.5769   -5162.8844            0    1604.8471    19.880891    19.932464    20.688686    8198.4123    2396.8628    898.81985    1518.8587    149.08707    300.41344    118.54563   -4882.6926 
41534000    44.644318   -5164.7842   -5078.6838   -5164.7842            0    1932.8354    19.957121    19.935768    20.579944    8187.9476    2022.3348    1443.2867    2332.8846   -208.68622    93.011073   -132.81275   -4847.8785 
41535000    42.928086   -5167.6384    -5084.848   -5167.6384            0    1767.7642    19.934594    19.908037     20.67259    8204.0961    1986.8354    1413.9542    1902.5029   -234.59136    14.416108    122.77599   -4873.3379 
41536000    45.642186    -5169.157   -5081.1322    -5169.157            0    2319.2449    19.966316    19.868894     20.61984    8180.0681    1797.4534    2826.3424     2333.939    140.73207    845.99618     93.49486   -4804.4511 
41537000    44.821623   -5162.4324   -5075.9901   -5162.4324            0    2547.1874    19.967996    19.896096    20.516481    8150.8937     2531.839     2465.043    2644.6802    83.619062    1.6548854   -162.16653   -4773.1997 
41538000    46.191464   -5161.2318   -5072.1477   -5161.2318            0    2692.1392    19.923784     19.87208    20.648026    8175.1117    2425.9954    2530.9581    3119.4642    -578.4718    414.10392   -435.85608   -4751.1758 
41539000    43.432592   -5164.2215   -5080.4581   -5164.2215            0    2153.2003    19.984074    19.799854     20.72794    8201.6674    1721.1563    2995.4281    1743.0165   -58.077347   -56.447056    442.08579   -4822.9076 
41540000    45.103925   -5164.2144   -5077.2277   -5164.2144            0    2056.8939    19.975896    19.864439     20.67476     8203.951    2256.1151    1544.8676    2369.6991   -151.27601     485.2886   -612.58843   -4831.1281 
41541000    44.935437   -5161.7617   -5075.0999   -5161.7617            0    2466.6013    19.975285    19.850719    20.634758    8182.1726    2382.8658    2585.8426    2431.0956       380.62    693.71894   -42.527044   -4780.7638 
41542000    45.199954   -5165.4922   -5078.3202   -5165.4922            0    2842.7632    19.891933    19.821961    20.692733     8159.085    2969.0428    2979.6198    2579.6269    190.18264    -71.78737   -103.49649   -4740.0545 
41543000    45.442308   -5160.9296   -5073.2903   -5160.9296            0    2159.8221    19.912582    19.829939    20.724553    8183.4064     1995.876    2736.5093    1747.0809   -511.34502    13.929886   -686.42117   -4815.5229 
41544000     44.08893   -5165.8631   -5080.8338   -5165.8631            0    2487.7958    19.900604    19.830724    20.692677    8166.2284    2188.5878    3251.8654    2022.9343   -221.40844   -478.23827   -410.40169   -4784.5472 
41545000    45.570615    -5169.019   -5081.1322    -5169.019            0    2674.6855    19.851509    19.897615    20.623516    8146.2408    3049.6022    2421.7179    2552.7365     -103.439    78.831918   -503.68431   -4763.3673 
41546000    44.228356   -5166.7415   -5081.4434   -5166.7415            0    1723.2387    19.946572    19.856824    20.694726    8196.6753    1751.9921    1880.3751     1537.349    189.28601   -552.58787    278.61766   -4875.4473 
41547000    45.657726   -5164.7916   -5076.7369   -5164.7916            0    2380.7634    19.891505    19.923838    20.643768    8181.4376    2967.1651    1896.5038    2278.6211   -225.59631     977.1405    198.88454   -4792.6692 
41548000    42.755437    -5164.356   -5081.8985    -5164.356            0    2254.6932    19.804325    19.866278    20.765725    8170.0302    2647.2164    2158.4098    1958.4534   -117.34884   -513.27677    34.945845   -4813.2484 
41549000    45.495819   -5161.4071   -5073.6646   -5161.4071            0    1965.9123    19.866747    20.004103    20.587873    8181.9593    2031.0568    1612.3218    2254.3582   -457.96612    449.56701    329.36274   -4839.0811 
41550000    45.238869   -5168.2766   -5081.0296   -5168.2766            0    2076.6619    19.834008    19.863877    20.780902    8187.2659    2793.7431    1696.4152    1739.8275   -385.37306     441.7956   -726.69497   -4833.0702 
41551000    48.512817   -5157.1486   -5063.5876   -5157.1486            0    2503.0637    19.922707    19.915255    20.642925    8190.4063    2250.8319     2238.812    3019.5473   -203.80812    877.11661   -596.81079   -4764.5999 
41552000    43.643628    -5164.521   -5080.3506    -5164.521            0    2324.6709    19.895368    19.946785    20.616012    8181.4359    2777.7447    1872.8792    2323.3887   -212.03661    670.35183    332.34988   -4802.9759 
41553000    43.289843   -5167.1601    -5083.672   -5167.1601            0    1531.3728    19.927482    19.933042    20.693868     8219.922    2046.9176    1320.2558     1226.945    115.38475   -361.88649   -121.01481   -4900.0924 
41554000    47.065724   -5163.5376   -5072.7674   -5163.5376            0    1505.3841    19.939072    20.017141    20.595979    8220.3335    1597.7279    756.45329     2161.971    -157.0321    733.54224   -104.96166   -4892.2943 
41555000    45.702823   -5162.9812   -5074.8394   -5162.9812            0     2174.966    19.896946    19.969204    20.616492    8191.4717    2894.2792    952.87089    2677.7478    191.00451    299.59635    332.76966   -4815.0088 
41556000    46.020303    -5159.097    -5070.343    -5159.097            0    1219.1925    19.947538    19.958893    20.704778    8243.2093    498.00726    1661.7688    1497.8016    17.342914    539.53811    79.955429   -4923.7731 
41557000    42.748571   -5166.1501   -5083.7059   -5166.1501            0    1500.8587    19.917197    19.895927    20.760538     8226.801    1085.8269    1831.5363    1585.2129   -293.89251    498.66789   -608.62107   -4903.6337 
41558000    44.952662   -5163.0078   -5076.3128   -5163.0078            0    2557.0846    19.917869    19.938658    20.579327    8172.7827    2225.4717    2510.9102     2934.872    23.458037    447.76089    523.69215   -4771.5296 
41559000    44.866089   -5165.2557   -5078.7277   -5165.2557            0    1814.7086    19.941038    19.865235    20.654395    8181.8959    1471.1975     2167.418    1805.5103   -148.14521   -355.21712    515.56937   -4862.1884 
41560000    44.750566   -5163.3391   -5077.0339   -5163.3391            0    2098.9347    19.934884    19.865889    20.690407    8193.9015    1141.9662    2731.9297     2422.908    207.47066   -661.40815    327.69778   -4826.2119 
41561000    44.976283   -5161.4363   -5074.6958   -5161.4363            0    1949.0329    19.920323    19.971454    20.584064     8189.119    2545.7741    1283.8389    2017.4857   -311.88278    32.179425    134.55794    -4841.923 
41562000    46.940381   -5159.4619   -5068.9334   -5159.4619            0     1900.408    19.984166    19.921876    20.606099    8203.7429    1744.5904    1462.0901    2494.5434    387.77609    55.098742    449.58261   -4841.5626 
41563000    45.929579    -5160.796    -5072.217    -5160.796            0    1869.5253    19.929166    19.960074    20.610683    8198.6746    1971.9068    1688.9487    1947.7205   -281.45668   0.35431961    36.658974   -4848.6792 
41564000    44.736366   -5161.2631   -5074.9853   -5161.2631            0    2531.9437    19.911248    19.843089    20.702238    8179.4682    1845.6324    3439.1155    2311.0833   -115.12085    -149.2359   -497.83926   -4772.9518 
41565000    45.766876   -5166.1407   -5077.8754   -5166.1407            0    2594.3126    19.846557    19.952739    20.634077    8170.9535    3294.4783    2071.0709    2417.3887   -255.56908    398.34998   -212.28693   -4768.7242 
41566000    47.281847   -5160.0335   -5068.8465   -5160.0335            0    2070.6955    19.889408     19.94685    20.587748    8167.7991    2293.3233    1640.6789    2278.0843    -192.4121    74.880311    425.43764   -4822.1874 
41567000    44.281117   -5165.5146   -5080.1148   -5165.5146            0    1959.4157    19.951237    19.930952    20.592451    8188.5296    2606.2051    1280.1451     1991.897   -137.11369    324.35624    -145.5311   -4846.1188 
41568000    44.317168   -5162.1144    -5076.645   -5162.1144            0     2196.123    19.843055    19.960759    20.647723    8178.2009    2978.5412    1592.7695    2017.0582    119.18206    385.75195    -689.7604   -4814.7119 
41569000    43.216581    -5166.144   -5082.7972    -5166.144            0    2262.3589    19.971092    19.794441    20.687541    8178.1284    1445.9484    2394.4298    2946.6986   -321.42192    183.65958    83.546974   -4812.9666 
41570000    46.814494   -5164.6124   -5074.3267   -5164.6124            0    2191.6774    19.872264    19.884475    20.726492    8190.0638    2836.7535    2013.2405    1725.0381    168.50655    23.127354    129.78236   -4812.5447 
41571000    45.831108   -5163.0338   -5074.6447   -5163.0338            0    1835.2185    19.928001     19.92038    20.613121    8182.8599    1575.5988    1934.5343    1995.5225    102.58372    309.25806    416.95835   -4855.6322 
41572000    49.522205   -5161.3322   -5065.8244   -5161.3322            0    2079.5741    19.942181    19.859996    20.685489     8192.522    2301.0964    1870.7898     2066.836   -83.902262    221.08253    21.080276   -4817.3579 
41573000    44.164463   -5168.7347   -5083.5598   -5168.7347            0    1878.7871    19.918072    19.953554    20.689584    8222.7924    2192.3264    1346.8394    2097.1953    81.302779   -441.05751    109.04166   -4858.2538 
41574000    43.904127   -5165.0048    -5080.332   -5165.0048            0    2245.7512     19.85554    19.883145    20.741622    8188.5968    2650.0209    1973.9817    2113.2509    40.172967    596.44008    95.209088   -4812.1392 
41575000     43.13417   -5160.9722   -5077.7843   -5160.9722            0    1495.7254    19.902499    19.953901    20.616508    8187.4852    887.16092    2063.4516    1536.5638   -219.52483    165.80324     332.0783   -4899.1856 
41576000    44.860812   -5163.6078     -5077.09   -5163.6078            0    2359.8106    19.887085    19.891897    20.648244    8168.2768    2921.2427    1868.5548    2289.6342    308.65461    428.86448    704.71895   -4795.9753 
41577000    41.185008    -5163.946   -5084.5173    -5163.946            0     2275.525    19.873254    19.929313    20.692377    8195.4291    2366.1528    2429.4564    2030.9657   -449.32056    467.01255   -749.13489   -4812.5421 
41578000     47.88184   -5162.7877   -5070.4436   -5162.7877            0    1699.1682    19.996587    19.899572    20.612462    8202.1836    1555.3888    1496.8261    2045.2896   -3.6168204    187.69067    -715.8603   -4867.1884 
41579000     44.48563   -5166.1177   -5080.3234   -5166.1177            0    1773.5119    19.984025    19.918102    20.605224    8201.7824    993.63209    2401.3801    1925.5234   -108.60355    539.95668    100.90414   -4868.1855 
41580000     45.28685   -5159.7225    -5072.383   -5159.7225            0    1715.8485    19.872538    19.925837    20.707673    8199.7613    2742.4009    1115.7333    1289.4112   -147.87522    504.34238   -244.01232   -4867.1931 
41581000     46.05029   -5163.0363   -5074.2245   -5163.0363            0    2025.0948    19.921019    19.855855    20.681536     8180.558    1936.7538    2134.7898    2003.7409    119.19164    433.72439    449.81056   -4832.6204 
41582000    44.431113   -5167.0378   -5081.3487   -5167.0378            0    1544.1706    20.055411     19.89998    20.535825    8195.8946     748.4457    1821.8298    2062.2363    89.019875     783.2533   -166.86162    -4896.776 
41583000    45.706071   -5163.8659   -5075.7179   -5163.8659            0    1439.9254    19.916219    19.855896    20.693296    8183.2542    1746.5835    1765.6446    807.54793   -107.90251    36.145528    183.58595    -4903.871 
41584000    46.531624   -5158.6458   -5068.9056   -5158.6458            0    1939.7705    20.003138    19.875461    20.586263    8184.5131    1613.4492    1644.3248    2561.5376   -107.90414    135.32403    685.91939   -4837.3693 
41585000    42.684055   -5162.9712   -5080.6514   -5162.9712            0    1984.5748     19.88392     19.89949     20.68771    8185.7105    2022.7034    2156.5681    1774.4528   -159.21089    610.11532     199.3565   -4843.7325 
41586000    44.312047   -5164.6847   -5079.2252   -5164.6847            0    1605.7544    19.854173    19.945201    20.736706    8211.6419    1764.4961     1398.372    1654.3951   -193.24116    692.93077   -425.40233   -4886.9226 
41587000    44.762181   -5163.0056    -5076.678   -5163.0056            0    1918.6496    19.872839    19.918923    20.713023    8199.1581    2695.7568    662.15276    2398.0393   -73.207228    125.38823    50.308898   -4847.2529 
41588000    44.218402   -5161.3278   -5076.0489   -5161.3278            0    1902.2037    19.895486     19.89493    20.719102    8201.0204    1595.6269     2320.641    1790.3432    65.249617   -46.796535    568.68277   -4848.5387 
41589000    43.509374   -5169.5065    -5085.595   -5169.5065            0    1825.5127    19.888711    19.948034     20.67795    8203.7842    1703.7313    1699.0763    2073.7305   -38.093771    803.16426   -170.18864   -4867.1837 
41590000     45.28699   -5167.0644   -5079.7247   -5167.0644            0    1481.4855    19.856037    19.932153     20.75646    8214.8581    2023.3082    1473.9925    947.15573   -53.418844    358.98822    420.91529   -4902.2349 
41591000    44.992994   -5167.3315   -5080.5587   -5167.3315            0    1357.4253    19.921871    19.918687    20.736498    8228.6057    2616.5966    534.57424    921.10489   -217.02569    557.10184    6.4799342   -4917.6599 
41592000    44.564731   -5165.7498    -5079.803   -5165.7498            0     1493.266    19.961134    19.914335    20.689424    8224.3088    1940.4274    809.91111    1729.4595   -243.64186    -211.0276   -498.68991    -4900.696 
41593000    48.085376   -5163.7721   -5071.0354   -5163.7721            0    1883.6973    19.966625    19.805221    20.633892    8159.5372    1954.5703    1947.3702    1749.1515    143.48596    329.26573   -164.45131   -4846.8783 
41594000    44.731995   -5163.5081   -5077.2387   -5163.5081            0    2460.8028    19.987725    19.823493    20.636225      8176.62    2198.7879    2795.0962    2388.5244    19.199134   -7.3452046   -343.47541   -4783.7938 
41595000     44.62375   -5169.5723   -5083.5117   -5169.5723            0    2825.1717    19.981441     19.86256    20.605059    8177.7891    2178.2561    3006.3419    3290.9172   -299.62724    231.61473   -482.09359   -4746.5685 
41596000     44.04645   -5160.2613    -5075.314   -5160.2613            0    2778.7876     19.98286    19.788784    20.748442    8204.6916    2076.4554     3970.206    2289.7014   -222.45498    683.63853    86.705598   -4742.8126 
41597000    44.974206   -5162.0994   -5075.3629   -5162.0994            0    2655.3297    19.946987    19.837388    20.689411    8186.7197    3051.6125    2189.0488    2725.3278    111.22836    67.958363   -299.84784   -4758.3301 
41598000    44.882368   -5160.4585   -5073.8991   -5160.4585            0     2933.936    19.918793    19.877378    20.595695    8154.5231    3528.2853     2401.135    2872.3878   -495.63112    338.10347    288.48963   -4724.9797 
41599000    46.260096   -5166.6757   -5077.4592   -5166.6757            0    2208.9346    19.922333    19.903195    20.653013     8189.293    2112.5204    2140.5446    2373.7387    75.520611    -448.0825   -452.29265   -4813.6408 
41600000    45.398414   -5164.5766   -5077.0219   -5164.5766            0    2296.2615     19.94796    19.822376    20.726687    8195.6631    2453.9975    2629.0624    1805.7246   -21.143613     741.7602    317.18872   -4802.5605 
41601000    42.644779   -5165.7739   -5083.5298   -5165.7739            0    1814.1685    19.957187    19.892861    20.664138    8203.7771    1445.2606    2077.8522    1919.3928   -226.59488    517.97089   -92.884865   -4866.4761 
41602000    44.799134   -5161.8097   -5075.4108   -5161.8097            0    2097.9688    19.997415    19.863016    20.568202    8169.8747    1619.1665    2380.0402    2294.6997   -38.971185   -128.49143   -346.75137   -4825.4394 
41603000     45.79772   -5160.2626   -5071.9378   -5160.2626            0    2261.5628    19.943959    19.842381    20.605735    8154.4235    1622.0747    2934.2684    2228.3454    -320.0623    228.44008    -636.8964   -4802.9839 
41604000     45.26947   -5158.8446   -5071.5386   -5158.8446            0    2422.1153    19.908837    19.915043    20.555005    8149.7583    1722.9163    2897.1692    2646.2605   -106.16505   -595.02588    298.91247    -4783.656 
41605000    46.023787    -5157.532   -5068.7713    -5157.532            0    2371.0271    19.895061    19.890005    20.662866    8176.5618    2555.4456    1966.7498    2590.8859   -172.56981    485.30448   -17.124634   -4786.0339 
41606000    44.337465   -5164.6003   -5079.0917   -5164.6003            0     2488.406    19.940788    19.862109    20.564823    8145.0299    2166.7789    2573.7911     2724.648   -346.32231    123.50594   -248.10313   -4783.5017 
41607000    44.464116   -5160.3597   -5074.6069   -5160.3597            0    2587.1402    19.886641    19.859698    20.648983     8155.165    2658.7272    2706.6781    2396.0152    70.361608    465.56072    89.519355   -4766.9062 
41608000    46.030448    -5160.913   -5072.1394    -5160.913            0    1910.9572     19.91389     19.94643    20.669545    8210.1707    2399.7311    1478.8328    1854.3077    16.235154    441.89287    -182.2607   -4843.3273 
41609000    46.249923    -5165.919   -5076.7221    -5165.919            0    2176.6295    19.867878    19.896374    20.702722    8183.7597    2498.0907    2157.4115    1874.3863   -65.624959   -332.86886    486.75673   -4816.9376 
41610000    45.239368   -5161.1229   -5073.8749   -5161.1229            0    2283.3806     19.93153    19.878173    20.663733    8187.0207    1998.0941    2715.9027     2136.145   -163.61779    646.42005   -184.64927   -4801.2409 
41611000    46.336273   -5161.5885   -5072.2251   -5161.5885            0    2395.7543    19.920086    19.889478    20.661653    8186.1491    2615.1148    2015.1273    2557.0207    290.56888    501.10448    395.05673   -4786.2042 
41612000    46.346436   -5163.1596   -5073.7766   -5163.1596            0     2568.239    19.941763    19.857487    20.662093    8182.0505    2754.8234    2569.9425    2379.9513    100.90324    6.4757731   -89.093863   -4767.3168 
41613000    43.424826   -5163.8883   -5080.1399   -5163.8883            0    3047.1457    19.924751    19.891653    20.593621    8161.9983    3019.9622     2784.113    3337.3618   -402.97316    304.17454    -163.5556   -4717.4248 
41614000    45.467142   -5159.4412    -5071.754   -5159.4412            0      2523.92    19.952087     19.95546    20.482559    8155.1939    2469.9486    2012.0969    3089.7144   -32.348912    269.66565   -165.85727   -4771.5712 
41615000    45.478062   -5164.4853    -5076.777   -5164.4853            0    1846.6179    20.003685    19.896911    20.625138    8209.0428     1267.325    2193.3755    2079.1533   -121.64707   -1.4515695   -158.41269   -4855.6991 
41616000    42.839039    -5164.418   -5081.7994    -5164.418            0    1866.2308    19.942565     19.86892    20.705945     8204.466    2009.1775    2248.0364    1341.4786   -92.643661    757.84865    12.391125   -4858.4979 
41617000    44.255266   -5166.3929   -5081.0429   -5166.3929            0    1980.4321    19.899739    19.944318    20.623286    8185.1084    2350.7693    1565.9542    2024.5729   -337.30534   -195.70884    520.62619   -4844.6359 
41618000    43.698634   -5164.3058   -5080.0293   -5164.3058            0    2216.2709    19.919319    19.886998    20.633674    8173.7299    2028.4074    2362.5066    2257.8986   -390.36275   -44.892038    59.800026   -4815.8377 
41619000    45.326719   -5165.6767   -5078.2604   -5165.6767            0    2709.0023    19.887267    19.890289    20.575572    8138.9452    2587.6994     2655.041    2884.2665   -117.31714    78.419509   -112.87386   -4756.7067 
41620000    45.560057   -5162.7637   -5074.8973   -5162.7637            0    2972.4275    19.866501    19.872783    20.655835    8154.9785    3631.0784    2959.2196    2326.9845    94.952467    195.72073    153.27688   -4721.3806 
41621000     43.42049   -5164.6174   -5080.8774   -5164.6174            0    2947.5339    19.929633    19.889711    20.537513    8140.9599    2439.4823     3212.642    3190.4773   -191.85715    56.913818   -93.841275   -4730.9239 
41622000    45.849884   -5159.1741   -5070.7487   -5159.1741            0    2257.6524    19.930833    19.886445    20.612317    8169.7621    1486.2445    2881.3835    2405.3292    -325.6182    420.88297   -324.94152   -4801.7549 
41623000    46.494425   -5166.1726   -5076.5042   -5166.1726            0    2001.5282    19.916815    19.961951    20.628382    8201.4009    1904.7774    1640.8112    2458.9961   -243.27377    353.23679    128.30951   -4837.1033 
41624000    42.373868   -5156.3082   -5074.5866   -5156.3082            0    2419.8047    19.812403    19.950221    20.696416    8180.5031    2312.1758    2434.1479    2513.0904    94.266779    166.30106   -97.389578   -4785.8936 
41625000    46.911411   -5163.1473   -5072.6747   -5163.1473            0    1974.3783    19.867745    19.883218    20.768811    8204.4009    3070.0058    1268.4877    1584.6415   -130.20102    297.79783   -46.289996   -4836.4349 
41626000    44.117874   -5166.9124   -5081.8274   -5166.9124            0    2061.9096    19.899625    19.901246    20.623795    8167.5866    1625.2531     2560.349    2000.1266   -22.662344    64.858659    290.66167   -4836.2212 
41627000    45.744858   -5168.0359    -5079.813   -5168.0359            0    1060.4371    19.968651    19.944103    20.673786    8233.4764    470.93848    1455.7985    1254.5742   -491.11626   -14.055738   -137.47799   -4952.4792 
41628000    44.151601   -5163.4158   -5078.2657   -5163.4158            0    2231.4057    19.782413    19.939746    20.705825    8167.5432    2875.0983    1681.1537    2137.9651    36.787036    324.60278   -471.83611   -4812.4713 
41629000    48.050294   -5160.9594   -5068.2903   -5160.9594            0    2412.9766    19.841032    19.848809    20.725045    8161.9549    2576.5232    2746.8861    1915.5203   -91.278012    364.18049   -417.81664   -4781.0647 
41630000    41.980694   -5164.0573    -5083.094   -5164.0573            0    2073.7136    19.851424    19.924804     20.68824    8182.9379    2784.1132    1566.7339    1870.2938    72.896836    220.39894    674.56949   -4835.6175 
41631000    43.284888   -5167.1499   -5083.6714   -5167.1499            0    2254.8671    19.829866    19.945407    20.661335    8171.8626    2922.1551    1385.7477    2456.6985    103.82416    -9.532807    -6.312591   -4814.9403 
41632000    46.867758   -5161.1742   -5070.7858   -5161.1742            0    1619.1332    19.948539    19.890687    20.653027    8194.9175    1560.1806    1762.7069     1534.512   -224.92547    427.53329     358.8856   -4877.2759 
41633000    45.793086   -5161.2221   -5072.9063   -5161.2221            0    1711.8161    19.974928    19.875926    20.708034    8221.5075    2665.4517    1075.4769    1394.5198   -230.28077    423.07777   -803.74909   -4867.6556 
41634000    43.558758   -5163.7391   -5079.7324   -5163.7391            0    1491.2885    19.874862    19.999613    20.612903    8193.4134    1496.0905    1379.8354    1597.9395   -189.66578    336.93693   -51.193159   -4901.5346 
41635000    44.407924   -5164.2159   -5078.5715   -5164.2159            0    1742.9741    19.836777    19.975292    20.754755    8223.9763    2092.3814    1467.6748    1668.8662   -35.774349    591.82108    459.70616   -4869.5222 
41636000    44.712572   -5161.8745   -5075.6426   -5161.8745            0    2138.8278    19.840803     19.96599    20.707023    8202.9064    2998.1058    1621.6983    1796.6794   -247.58952    465.35914   -63.130089   -4819.7725 
41637000    44.647675   -5164.9177   -5078.8109   -5164.9177            0    2451.5519    19.862553    19.902378    20.661629    8167.7908    2017.3669    2909.9612    2427.3276    -273.5979   -50.759799    483.24143   -4786.7848 
41638000    43.502999   -5162.0454   -5078.1462   -5162.0454            0    2327.4817    19.993089    19.821831    20.594831    8161.7237    2278.1618    1713.0732      2991.21   -102.48629   -540.28497    32.242423   -4801.1052 
41639000    43.448732   -5171.0056    -5087.211   -5171.0056            0    1956.5839     19.95404    19.828487    20.769098    8217.4685    1935.0047    2129.6971    1805.0499   -110.89667    160.07447   -254.82572   -4852.7275 
41640000    45.924691   -5163.0213   -5074.4517   -5163.0213            0    2185.5427    19.854844    19.911448    20.715119    8189.4884    2375.6724    1321.6531    2859.3024   -173.30482    400.55832   -555.46741   -4813.4207 
41641000    44.818588   -5163.1984   -5076.7619   -5163.1984            0    1980.8397    19.874604    19.899334    20.706589    8189.2778    2580.3054    1678.6327     1683.581    94.139515     228.1171    494.17346   -4840.1859 
41642000    43.088793   -5158.6646   -5075.5643   -5158.6646            0    2138.2835    19.884161    19.882127      20.6498    8163.6799    2193.7151    2184.1239    2037.0116    270.72706    571.67856    536.24702   -4820.9826 
41643000    45.664301   -5165.9914   -5077.9239   -5165.9914            0    2254.6243    19.873955    19.884534    20.637606    8155.6586    1763.3241    2407.2994    2593.2495   -210.18338    245.18262    424.02734   -4809.7546 
41644000    47.262222   -5167.6911   -5076.5419   -5167.6911            0    1497.4561    19.963015    19.788001    20.760864     8201.126     1066.544    2001.1622    1424.6621    -103.5034    125.92423   -484.97449   -4897.4387 
41645000    46.504803   -5168.3853   -5078.6968   -5168.3853            0    1770.2234     19.92039    19.928444    20.663394     8203.003    1973.8766    1457.0982    1879.6954   -178.55979   -198.09124   -5.0133467   -4866.9208 
41646000    43.710358   -5165.0209   -5080.7218   -5165.0209            0    2279.4686    19.924969    19.912412    20.642482    8189.9912    2407.2984    1580.8079    2850.2994   -144.94177   -7.1942333    -141.7801   -4808.4561 
41647000     44.33915   -5167.5949   -5082.0832   -5167.5949            0    2146.4004    19.914377    19.871616    20.641313    8168.4043    1746.1533    2707.0177    1986.0303    8.4348922     358.4835    90.345791   -4826.3872 
41648000    45.001865    -5168.487   -5081.6972    -5168.487            0    1863.6213    19.867152    19.884393    20.792648    8214.0575    2074.3432    1715.8289    1800.6917   -172.05682   -489.02733   -573.63461   -4858.4473 
41649000    46.681364   -5164.0267   -5073.9978   -5164.0267            0    2490.5106     19.81369    19.914616    20.707235    8170.7029    3557.0004    2172.1815    1742.3501    -58.40749     1040.021    317.88431   -4777.2252 
41650000    44.257141   -5162.2825   -5076.9289   -5162.2825            0    2429.6614    19.906536    19.911592    20.628616    8176.5815    2124.6939      2121.47    3042.8202   -129.78947    518.21481   -379.53185    -4787.199 
41651000    46.438084   -5159.7155   -5070.1557   -5159.7155            0    2482.4008    19.831578    19.887315    20.745189    8181.8372    2943.9608    2507.6467    1995.5949   -63.069845   -9.2628933   -446.06674   -4773.9465 
41652000    46.324885   -5162.9746   -5073.6332   -5162.9746            0    1976.7305    19.855259    19.889576     20.69975    8174.5939    1551.4127    2327.3575    2051.4212   -551.86483    71.811936   -376.94289   -4837.9712 
41653000     45.05977   -5163.9989   -5077.0974   -5163.9989            0    1439.3464    19.965543    19.949562    20.635385    8219.1534    1402.2546    1220.1067    1695.6778   -4.7289997   -108.65252    156.26519   -4904.5659 
41654000     44.52574   -5163.4131   -5077.5414   -5163.4131            0    1880.4467    19.909244    19.904242     20.70592     8205.309    1993.3394    2162.3636    1485.6372    30.165884    701.64258    326.73084   -4852.5159 
41655000    44.536445     -5163.54   -5077.6478     -5163.54            0    2043.9454    19.861271     19.88336    20.704132     8176.244    2353.3074    1687.5955    2090.9333   -163.15192    23.885153    23.146343   -4833.9234 
41656000    44.367435   -5166.4106   -5080.8443   -5166.4106            0    1611.2237    19.888814    19.910346    20.716459    8203.5764     1769.308     1163.831    1900.5321    131.04935    976.12174   -156.57971   -4888.0763 
41657000    47.279047   -5166.7451   -5075.5635   -5166.7451            0    2283.7811    19.925157    19.840532    20.710452    8187.3741    2875.6906     1692.491    2283.1619   -264.36158    145.52298    199.07912   -4802.8699 
41658000    43.671406    -5166.202    -5081.978    -5166.202            0    2394.3348    19.882326    19.922401    20.587503    8154.7854    3155.6594    1111.4662    2915.8788   -127.02473     103.9886   -522.62547   -4797.2217 
41659000    44.935946   -5165.1177    -5078.455   -5165.1177            0    2112.7271     19.96435    19.867447    20.598324    8170.1329     1872.643    1663.7211    2801.8172    344.03769    442.91712     197.2103   -4826.7172 
41660000    43.373497   -5160.1307   -5076.4813   -5160.1307            0    2038.1646    19.905687    19.924815     20.64845    8189.5293    2590.3406    1555.1493    1969.0039   -162.00375   -163.37713   -569.59215   -4833.0513 
41661000    44.184096   -5167.0867   -5081.8739   -5167.0867            0    2041.0618    19.893798      19.9274    20.752129     8226.801    1796.6839    2160.7785    2165.7232   -437.85908   -270.10519    227.74112   -4836.9885 
41662000    45.391614   -5165.2078   -5077.6663   -5165.2078            0    1508.6448    19.875383    19.915996    20.708881    8197.3631    1699.5379    1574.5875    1251.8089   -390.17332    595.70524   -375.36828   -4897.3076 
41663000     44.33777   -5160.4462    -5074.937   -5160.4462            0    2694.1217    19.893673    19.877901    20.657225    8168.7854     2686.893     2640.938     2754.534   -99.232907   -125.00864      203.655   -4753.9773 
41664000    45.158135   -5166.8695   -5079.7782   -5166.8695            0    2203.9275    19.837052    19.934833    20.662684    8171.0238    2266.3579    2221.9109    2123.5136    192.23065    350.79387    177.12278    -4817.145 
41665000    44.344654   -5164.6984    -5079.176   -5164.6984            0    2086.3351    19.889711    19.976623    20.642814    8201.9939      2024.98    2061.8538    2172.1716   -129.62297    859.71755    521.96634   -4829.6134 
41666000    45.506259   -5163.1178   -5075.3551   -5163.1178            0    1464.4222    19.950881    19.834903    20.777468    8222.1385    709.16955    2359.0376    1325.0596   -67.263686   -589.78336   -318.56166   -4899.7541 
41667000    45.033708    -5160.964   -5074.1128    -5160.964            0    2975.5796     19.87977    19.989317    20.466566     8133.066    2449.4208    3261.6336    3215.6844    -45.78176   -306.40076   -18.003355    -4721.172 
41668000    46.639392   -5158.6867   -5068.7387   -5158.6867            0    2647.0736    19.903618    19.825398     20.67316    8157.5702    2767.5935    3286.4636    1887.1636      -247.52   -124.32901    188.75409   -4753.8169 
41669000    47.278863   -5161.9497   -5070.7685   -5161.9497            0    2228.8537    19.914965     19.89685    20.652275    8183.3621    2572.3067    1420.9545    2693.2998    188.36695    148.59179    428.41534   -4804.7638 
41670000    45.470052   -5163.6162   -5075.9233   -5163.6162            0    2716.8978    19.904557     19.89776    20.691747    8195.0926    3180.7948    2235.6461    2734.2524   -198.79326    488.82628    367.16944   -4751.2078 
41671000    46.930522   -5164.8295   -5074.3201   -5164.8295            0    1950.5905    19.946927    19.890968    20.677755    8204.1826     2115.917    2067.7527    1668.1018    8.7471086   -176.62526    118.29646   -4840.9327 
41672000    43.467023   -5162.7981   -5078.9683   -5162.7981            0    1717.3101    19.955888    19.915477    20.602807    8188.1946    1940.8872    1128.9691    2082.0741   -39.493873    155.93852    351.43296   -4873.8933 
41673000    42.647591   -5163.1694     -5080.92   -5163.1694            0    1994.3909    19.922024    19.953716    20.557645     8172.042    1949.8118    1123.9502    2909.4107   -177.87306    325.00926   -176.59099   -4843.2268 
41674000     44.86324   -5163.3588   -5076.8362   -5163.3588            0    1462.5949     19.92121    19.925894    20.729491    8228.5284    2214.2093    1328.8168    844.75849   -99.178584   -346.63687   -428.86841   -4901.3181 
41675000       44.714   -5165.2349   -5079.0002   -5165.2349            0    2016.6863    19.844751    19.946267    20.712622    8198.6504    2951.9097    1448.0727    1650.0764    51.038473    304.98124    121.47883   -4837.8672 
41676000    44.746075   -5167.2349   -5080.9384   -5167.2349            0    2313.9784    19.954274    19.842623    20.646797    8174.9987    1526.1763    2994.8218    2420.9371   -414.33859   -137.76177   -310.71647   -4805.0567 
41677000    45.252273   -5164.2039   -5076.9311   -5164.2039            0    2068.3316    19.922086    19.858618    20.629922     8161.715     1978.591    2302.6623    1923.7415   -38.713217    10.851492   -255.17978    -4830.737 
41678000    43.938992   -5161.7838   -5077.0437   -5161.7838            0    2086.7033    19.950277    19.855998     20.78407    8233.2488    2348.6771    1976.3672    1935.0655    5.1247297    58.716675   -668.67715    -4826.486 
41679000    45.767163   -5160.3499   -5072.0841   -5160.3499            0    1962.1655    19.922446    19.891913    20.753701    8224.5998    1945.9206    1911.7732    2028.8028   -315.42068   -309.87215    313.97047   -4836.7275 
41680000     46.10119   -5161.4071   -5072.4971   -5161.4071            0    3042.5207     19.96051    19.836902    20.616959    8163.3814    2643.2724    3817.1175    2667.1723   -20.735392    -85.59905    -607.1408   -4710.2711 
41681000     43.51126   -5162.9817   -5079.0666   -5162.9817            0    2325.6587    19.834245    19.914659    20.694295    8174.0858    2443.5711    2154.3409     2379.064   -10.129808    566.11793   -597.57927   -4801.8233 
41682000    44.292851   -5164.6872   -5079.2647   -5164.6872            0    2342.2298    19.991878    19.862203    20.653432    8201.1213    2095.5113    2286.8556    2644.3224   -249.42453    500.24883    -106.2884   -4799.1225 
41683000    44.491587    -5166.733   -5080.9272    -5166.733            0    1925.0094    19.857219     19.83647    20.740461    8169.6076    1754.9191    2487.6713    1532.4377    19.011885    656.66343   -209.84891   -4851.5713 
41684000    44.090623   -5167.4885    -5082.456   -5167.4885            0    1641.3413    19.939779    19.927574     20.68907    8220.8312    2060.0783    1411.5837    1452.3619    78.354739    656.30024    396.66066   -4885.6717 
41685000    47.502023   -5163.7653   -5072.1536   -5163.7653            0     1989.328     19.87957    19.886905    20.653376    8165.1702    1687.1686    2655.0692    1625.7463    251.58598    410.28579   -169.03316   -4835.2632 
41686000    46.075605   -5162.5887   -5073.7281   -5162.5887            0    2700.8059    19.970346    19.828334    20.691222    8193.2833    1991.3693    3149.8948    2961.1536    206.91294   -156.72076    193.46585   -4751.0071 
41687000    43.434463   -5163.5631   -5079.7961   -5163.5631            0    2185.9548    19.933566    19.839997      20.7176    8193.4357    2190.2131    2107.3377    2260.3135    -337.3232   -156.30178    121.88378   -4818.5901 
41688000    44.996642   -5161.6293   -5074.8495   -5161.6293            0    1977.3688    19.982033    19.815595    20.689258    8192.0332    1696.2818    1741.1799    2494.6446   -277.57402    124.53033    -408.5186   -4838.6085 
41689000    44.481117   -5168.0276    -5082.242   -5168.0276            0    1899.4857    19.938394     19.83062    20.707483    8187.5461    1496.5291     2593.725     1608.203   -221.88862   -160.14923   -90.200459   -4855.4302 
41690000    47.380943   -5160.8624   -5069.4843   -5160.8624            0     2418.256    19.903417    19.878021    20.659258    8173.6399    2839.3122     2337.865    2077.5909   -274.53218    835.16458    165.73618   -4781.2181 
41691000    45.402911   -5164.0567   -5076.4934   -5164.0567            0    2235.5008    19.942589    19.789107    20.741785    8185.6631    2096.5426     2322.507    2287.4528   -276.03036   -632.29846    188.80929   -4809.6204 
41692000    44.814596   -5160.1837    -5073.755   -5160.1837            0    2736.5034    19.825261    19.855961    20.702824    8149.6589    2827.9484    2441.0962    2940.4656   -537.77573    285.06381    306.17878   -4748.5095 
41693000    45.165658   -5163.6518   -5076.5461   -5163.6518            0    2311.2889    19.854936    19.843977    20.731411    8168.1944    2075.3563    2774.2274    2084.2831   -199.70298   -244.46919    -356.7996   -4801.2144 
41694000    46.986718   -5162.9204   -5072.3025   -5162.9204            0    2980.1962    19.874811     19.89763     20.64729    8165.2109    3294.6096    2497.5965    3148.3824   -288.83865    702.58566   -173.26514   -4717.4171 
41695000    44.645091   -5161.4214   -5075.3196   -5161.4214            0    2456.8774    19.905678    19.845036    20.712079    8181.8697    2648.1018     2287.183    2435.3473   -99.732089    81.606708   -161.18919   -4782.1548 
41696000    44.005218   -5161.6882   -5076.8205   -5161.6882            0    1965.0398    19.985666    19.873584    20.668079    8209.0885    1372.6846    2546.7596    1975.6753    207.02126   -18.862735   -108.02773   -4841.5637 
41697000    45.227114   -5162.4615   -5075.2372   -5162.4615            0    1930.0172    19.829559    19.787994    20.846286    8179.8154    2090.8014    2604.6645    1094.5857   -405.25441    260.06516    188.86979   -4844.9973 
41698000    45.322764   -5163.6264   -5076.2176   -5163.6264            0    1974.6836    19.894093    19.930289    20.639983    8183.6503    1482.8751    2400.1856    2040.9902   -370.64705    186.28858   -446.97674   -4840.5388 
41699000    46.021066   -5163.3842   -5074.6287   -5163.3842            0    1909.4021    19.878288    19.910522    20.760687    8216.8118    2079.7596    2123.2328    1525.2139   -319.68817   -343.63975    280.28571   -4845.8178 
41700000    46.178886   -5168.6627   -5079.6028   -5168.6627            0    2037.0823    19.859378    19.904758    20.699202    8182.3143    2643.2186    1299.8444    2168.1839   -100.62624     548.3461   -334.64994   -4836.5164 
41701000    43.913593   -5161.5156   -5076.8246   -5161.5156            0    2549.0303    19.803175    19.945569    20.650792    8156.7653    3480.5853    1701.9833    2464.5222   -200.74133    705.49157   -288.94922   -4773.5969 
41702000    46.589693   -5165.1854   -5075.3333   -5165.1854            0    1538.7968    19.872178    19.893976    20.727805    8194.4605    2243.8281    1648.0125    724.54975    174.72336    303.60855   -799.33909   -4891.4351 
41703000    44.445356   -5166.4527    -5080.736   -5166.4527            0    2569.6504    19.899408    19.941118    20.648718    8193.7504    1992.9887    2719.2613    2996.7012   -148.36215    -125.7723    668.82084   -4773.6694 
41704000    44.140416    -5167.185   -5082.0564    -5167.185            0    1972.9293    19.905702    19.942654    20.669219     8205.112    2228.3111    1881.2295    1809.2473    151.66952    210.02853    418.78546   -4845.9695 
41705000    43.518603   -5167.6886   -5083.7593   -5167.6886            0     1561.656    19.904758    19.946016    20.667676    8205.4935    1013.6201    1778.1963    1893.1517    -117.5334   -508.80734   -7.0689936   -4896.8779 
41706000    43.218238   -5165.0539   -5081.7039   -5165.0539            0    2082.7685    19.998294    19.838375    20.626367    8183.1739    1155.4179    2368.2199    2724.6678   -73.089053    123.67809    806.59399   -4833.1396 
41707000    43.831953   -5161.3484   -5076.8148   -5161.3484            0    2118.4269     19.96807    19.967417    20.527029    8184.3479    1767.0012    2187.9245     2400.355   -57.513414    153.15483   -47.200991   -4823.9586 
41708000    44.135423   -5160.1451   -5075.0262   -5160.1451            0    2345.9057    19.895623    19.890149    20.697077    8190.3899    2704.0252    2200.6087    2133.0831   -126.62245    171.07037    179.31715   -4794.8115 
41709000    46.214649   -5165.1379   -5076.0091   -5165.1379            0    2610.7698    19.855589    19.913026    20.674894    8174.5401    3214.6312    1879.7825    2737.8956   -406.19204    688.96125    602.38161   -4764.7602 
41710000    48.030638   -5164.2475   -5071.6164   -5164.2475            0    2069.8854    19.908379    19.899455    20.714918    8206.5439    1699.4671    2529.1544    1981.0347   -132.48401    358.26948     113.1728   -4823.8842 
41711000    45.270191   -5164.9203    -5077.613   -5164.9203            0    1278.2551    19.965461    19.895022    20.738212    8237.4936    1606.4683    661.59438    1566.7028    -222.3849    144.92913   -391.12452   -4924.0493 
41712000    43.112615   -5161.4359   -5078.2896   -5161.4359            0    1649.8471    19.944141    19.884577    20.722141    8218.0034    1283.0447    1702.6413    1963.8552   -287.31365   -486.12336    -58.23386   -4880.5536 
41713000    47.365505   -5164.3868   -5073.0385   -5164.3868            0    2238.2749    19.910809     19.82624    20.724688    8181.2051    2120.7737     2695.271    1898.7799   -156.79082   -145.05431    216.45156   -4805.9798 
41714000    46.987776   -5164.8353   -5074.2154   -5164.8353            0    2772.4548    19.912672    19.871735    20.642186    8168.0997    2187.1501    3355.0076    2775.2065   -264.75027   -59.407837   -145.72928   -4743.9513 
41715000    42.209569   -5167.1144   -5085.7097   -5167.1144            0    2412.1671    19.966597    19.940027    20.576915    8192.3794    2735.9751    1922.2521     2578.274   -76.692554   -105.60202     9.116695   -4797.5101 
41716000    44.044848   -5165.7658   -5080.8216   -5165.7658            0    2263.2464    19.884087    19.874126    20.703155    8181.4488    3178.4552    1065.5901     2545.694   -63.043895    161.75603    22.245918   -4810.7755 
41717000    43.301408   -5167.4755   -5083.9651   -5167.4755            0    1740.7979    19.917062    19.859048    20.703404    8188.8978    2169.8709    1826.6598    1225.8629   -137.68485    887.65647   -584.91894   -4876.0674 
41718000    46.198288   -5161.0585   -5071.9612   -5161.0585            0    1744.7326    19.934809    19.868515    20.644532    8176.7842    850.18778    2607.7996    1776.2105   -192.99811   -333.05014    243.88229   -4863.9018 
41719000    44.416262   -5160.8613   -5075.2008   -5160.8613            0    1407.4406    19.952362    19.928313    20.658201    8214.0502    583.86977    1917.1542    1721.2977     38.25808    261.46837    755.67042   -4906.5986 
41720000    42.661734   -5163.8124   -5081.5356   -5163.8124            0    1682.4915    19.904361    19.860046    20.726568    8193.2437    1676.5258    1701.9175    1669.0312   -376.47451    352.28127   -338.28081   -4880.4946 
41721000    44.186773   -5162.8005   -5077.5826   -5162.8005            0    2500.5491    19.904686    19.814029    20.682109    8156.8588    1841.5023    3129.1241     2531.021   -15.262305    719.65283   -106.46344   -4780.1188 
41722000    43.246895   -5163.8507   -5080.4454   -5163.8507            0    2553.1256    19.885476    19.967124    20.591534    8175.9876    1935.8072     2468.942    3254.6278   -55.377873   -419.68575    2.2083303   -4776.0148 
41723000    43.329215   -5162.9703   -5079.4062   -5162.9703            0     2355.446    19.918132     19.94417    20.527478     8154.553    2483.0006    2263.2324     2320.105   -174.83476   -82.806738     510.6477    -4799.283 
41724000    45.218547     -5165.63   -5078.4222     -5165.63            0    1740.1245    19.881035    19.887831    20.716396    8191.0694    2227.5295    1708.7901     1284.054   -345.69152    642.91008   -528.23827   -4870.5498 
41725000    42.104136   -5161.8737   -5080.6724   -5161.8737            0     2209.172    19.871755    19.764963    20.828106    8180.5411    2012.8489    2653.6229    1961.0442    -259.2216    192.09623    74.306494   -4817.1075 
41726000     44.26769   -5162.1932   -5076.8192   -5162.1932            0    2383.4528    19.914747    19.911976    20.621171    8177.1597    2305.0753    2236.5355    2608.7478    136.61051    124.53645     47.87463   -4792.5794 
41727000    47.999255   -5157.0414   -5064.4708   -5157.0414            0    2538.3158    19.942469    19.869058    20.561703    8147.3297    1764.0026    3110.7253    2740.2195     58.40257    180.80611   -44.207925    -4762.867 
41728000    46.774393   -5162.9056   -5072.6972   -5162.9056            0    2788.5414    19.931244    19.863386    20.628516    8166.8704    2850.0056    2626.7657    2888.8528   -446.77732     916.6206   -605.57682   -4740.5668 
41729000     46.92133   -5164.4718   -5073.9801   -5164.4718            0    2488.2602    19.897622    19.911789    20.692617     8198.358    2251.9587    2542.7273    2670.0947   -31.636455    48.043846   -206.76145   -4776.4721 
41730000    49.048854    -5166.317   -5071.7222    -5166.317            0    1844.9732    19.955562    19.881816    20.707008    8215.5635    2038.8829    1520.9147     1975.122   -232.31052    45.220409   -316.83604   -4850.6657 
41731000    45.941724   -5159.5006   -5070.8981   -5159.5006            0    2079.1693    19.970053    19.908644    20.556987    8172.9785    2066.0238    1534.0002    2637.4838   -133.29694    370.90591   -25.093779   -4823.0726 
41732000    44.631413    -5160.305   -5074.2295    -5160.305            0    2503.4323     19.84993    19.866766    20.680291    8155.3536    3042.5949    2461.6535    2006.0485   -1.6408989    678.34169    -140.2271   -4776.4777 
41733000     45.07013   -5165.8539   -5078.9323   -5165.8539            0    2385.0635    19.901548    19.791927    20.725213    8163.4537    1709.5929    3188.8077    2256.7901    -116.3568    427.73286   -283.38042   -4794.9772 
41734000    47.251196   -5165.9355   -5074.8076   -5165.9355            0    1853.2755    19.937912    19.886763     20.69353    8204.9959    918.82845    2661.4082    1979.5899   -9.9278639    233.40697   -466.76182    -4853.042 
41735000    41.713705   -5162.3815   -5081.9331   -5162.3815            0    1811.9953    19.924491    19.903799    20.661836    8193.9278     1350.864     1773.673     2311.449   -311.62192    328.01029   -194.31493   -4865.3996 
41736000    45.657702   -5168.2413   -5080.1866   -5168.2413            0    2371.5878    19.976669    19.807975    20.655335    8173.2614    1718.2111    3105.7502    2290.8021   -134.23429    48.725236    98.485144   -4797.4966 
41737000    44.862692    -5163.973   -5077.4515    -5163.973            0    2574.4168    19.869117     19.93978    20.626231    8171.8202    3091.1468    2232.2603    2399.8433   -461.37804    14.654003    64.591364   -4770.6386 
41738000    44.555463   -5159.7907   -5073.8617   -5159.7907            0    2660.2182    19.828631    19.894183    20.680368    8157.8759     2498.909    2719.8404    2761.9053   -158.86028     100.6027   -601.63202   -4757.3642 
41739000    43.197264   -5160.1691   -5076.8595   -5160.1691            0    2445.8861    19.967394    19.911925    20.648172    8209.4914    1840.0562    2536.9395    2960.6624    -87.35203    604.32136     -91.6675   -4784.0209 
41740000    47.330977   -5166.2643   -5074.9825   -5166.2643            0     1921.015    19.948427    19.864663    20.671884    8191.6219    1914.4805    1859.0314    1989.5332   -232.61735   -3.2251825   -9.4493422   -4845.4858 
41741000    43.287718   -5163.5491   -5080.0651   -5163.5491            0    1926.5891    19.973484     19.88572     20.62344    8191.3646    1722.1911    1923.0677    2134.5085   -3.3399559    662.27284    99.064849   -4849.9096 
41742000    44.495312    -5163.615   -5077.8021    -5163.615            0    2859.1812    19.927628    19.862729    20.626648    8164.3794    2558.0002    3184.2707    2835.2729   -458.05143    817.54699    508.39152   -4737.3619 
41743000     47.69548   -5166.1014   -5074.1167   -5166.1014            0    2554.7919    19.851707    19.888704    20.718939    8180.3498     2726.002    2835.7686    2102.6049    -111.4913   -119.53547    259.35147   -4769.3249 
41744000    43.754639   -5159.0492   -5074.6647   -5159.0492            0    1787.0273    19.886385    19.952397    20.720061    8221.3278    1844.1244    1460.4101    2056.5474   -545.85803    43.458978    378.32664   -4860.4008 
41745000    46.384217   -5160.6416   -5071.1857   -5160.6416            0    2470.2821    19.947985    19.880593    20.703011    8210.3541    1800.5211    3288.4009    2321.9243   -98.859064    542.03783    607.89935   -4775.3952 
41746000    46.839203   -5164.7635   -5074.4302   -5164.7635            0    2519.2491    19.934573    19.797692    20.743061     8186.426    2682.5086    2686.0224    2189.2163   -264.54943    359.17963    391.10007   -4773.6554 
41747000    42.654629   -5160.5609   -5078.2979   -5160.5609            0     2555.374    19.931617    19.938641     20.59698    8185.4325    2718.9896    2077.0455    2870.0869    66.107966    149.84335   -87.557188   -4773.2472 
41748000     47.35746   -5163.4312   -5072.0983   -5163.4312            0    2404.7508    19.902927     19.79699    20.736118    8170.4045    2125.2079    3213.6922    1875.3522   -51.045411    162.96712    954.44932   -4785.5555 
41749000    42.250253     -5161.79   -5080.3068     -5161.79            0    2506.0414    19.859111    19.939099    20.677604    8187.7684    2673.7819    2333.7166    2510.6256    38.676092    108.88218   -75.672662   -4781.0599 
41750000    47.843755    -5162.034   -5069.7633    -5162.034            0     1762.854    19.813754     19.92019    20.815045    8215.5684    1987.9061    2012.2139    1288.4419   -269.67146     734.4194    705.88837   -4858.5458 
Loop time of 376.394 on 64 procs for 250000 steps with 972 atoms

Performance: 114.773 ns/day, 0.209 hours/ns, 664.198 timesteps/s
195.0% CPU use with 32 MPI tasks x 2 OpenMP threads

MPI task timing breakdown:
Section |  min time  |  avg time  |  max time  |%varavg| %total
---------------------------------------------------------------
Pair    | 25.7       | 34.837     | 43.68      |  74.9 |  9.26
Bond    | 1.0328     | 1.2797     | 2.2293     |  19.4 |  0.34
Kspace  | 167.99     | 176.07     | 186.41     |  38.2 | 46.78
Neigh   | 0.085355   | 0.090794   | 0.10073    |   1.6 |  0.02
Comm    | 65.614     | 71.643     | 76.587     |  31.8 | 19.03
Output  | 0.51756    | 0.51807    | 0.52352    |   0.1 |  0.14
Modify  | 72.828     | 75.865     | 79.413     |  16.7 | 20.16
Other   |            | 16.09      |            |       |  4.27

Nlocal:        30.3750 ave          38 max          26 min
Histogram: 5 5 4 3 5 6 1 1 1 1
Nghost:        2664.59 ave        2685 max        2650 min
Histogram: 4 3 8 3 4 1 1 1 5 2
Neighs:        9594.50 ave       12571 max        8089 min
Histogram: 7 7 2 4 2 4 2 3 0 1

Total # of neighbors = 307024
Ave neighs/atom = 315.86831
Ave special neighs/atom = 2.0000000
Neighbor list builds = 251
Dangerous builds = 0

unfix		3
unfix		2
unfix		1

write_data	data.final.${pid}
write_data	data.final.1
System init for write_data ...
PPPM initialization ...
  extracting TIP4P info from pair style
  using 12-bit tables for long-range coulomb (../kspace.cpp:340)
  G vector (1/distance) = 0.37275073
  grid = 24 24 25
  stencil order = 5
  estimated absolute RMS force accuracy = 0.003365553
  estimated relative force accuracy = 1.0135263e-05
  using double precision FFTW3
  3d grid and FFT values/proc = 3458 576
Last active /omp style is kspace_style pppm/tip4p/omp
WARNING: Not all mixed pair coeffs generated from mixing. Use write_data with 'pair ij' option to store all pair coeffs. (../write_data.cpp:312)

write_restart   restart.lmp.${pid}
write_restart   restart.lmp.1
System init for write_restart ...
PPPM initialization ...
  extracting TIP4P info from pair style
  using 12-bit tables for long-range coulomb (../kspace.cpp:340)
  G vector (1/distance) = 0.37275073
  grid = 24 24 25
  stencil order = 5
  estimated absolute RMS force accuracy = 0.003365553
  estimated relative force accuracy = 1.0135263e-05
  using double precision FFTW3
  3d grid and FFT values/proc = 3458 576
Last active /omp style is kspace_style pppm/tip4p/omp
Total wall time: 0:06:16
