LAMMPS data file via write_data, version 30 Jul 2021, timestep = 2000000

972 atoms
2 atom types
648 bonds
1 bond types
324 angles
1 angle types

-0.10166098091035103 20.1016619809095 xlo xhi
-0.11166497194482972 20.111665971944966 ylo yhi
-0.17930057406378452 20.879298574065572 zlo zhi

Masses

1 1.008
2 15.999

Pair Coeffs # lj/cut/tip4p/long/omp

1 0 0
2 0.21084 3.1668

Bond Coeffs # harmonic/omp

1 450 0.9572

Angle Coeffs # harmonic/omp

1 55 104.52

Atoms # full

10 4 2 -1.1794 0.690950661792358 3.7017321696155183 3.9766236862701767 0 0 0
11 4 1 0.5897 0.6276980149949565 2.768818116064094 3.771495372519754 0 0 0
12 4 1 0.5897 1.6282653552177055 3.8597620991622876 4.088926847857885 0 0 0
16 6 2 -1.1794 3.4723376683716825 3.930499291407828 3.4208903567360553 0 0 0
33 11 1 0.5897 1.4702912812811888 1.81834419119354 0.9870127002191613 0 0 0
31 11 2 -1.1794 1.0022206327894976 1.733944073539389 1.8175648093252579 0 0 0
18 6 1 0.5897 3.532897947095366 3.021670560578278 3.1263155030166168 0 0 0
23 8 1 0.5897 2.6311629909025376 0.9493570635689648 4.2034604677925085 0 0 0
6 2 1 0.5897 5.002476694904101 0.9475594268061507 3.4500771207880856 0 0 0
4 2 2 -1.1794 4.317009467742485 1.3777880829172695 2.9389921267145844 0 0 0
34 12 2 -1.1794 5.26843005307048 2.3964278137363957 -0.040773789541793115 0 0 0
37 13 2 -1.1794 9.488701225345448 2.7577223677017684 -0.13326670790016476 0 0 0
17 6 1 0.5897 3.9023009797242674 4.435730442446483 2.7309414022579475 0 0 0
46 16 2 -1.1794 7.884566982197137 3.748321562526944 3.5536913164549 0 0 0
48 16 1 0.5897 7.207036264716416 4.11223118404146 4.123488877392699 0 0 0
69 23 1 0.5897 6.720277397902612 2.0994631994102084 1.1271046943397296 0 0 0
32 11 1 0.5897 0.08980605273224185 1.923644163464481 1.5992515792270496 0 0 0
68 23 1 0.5897 8.224400440260899 2.0640396285749207 1.2947088545625567 0 0 0
5 2 1 0.5897 4.0898645892750425 0.7426721522488122 2.2598641344768304 0 0 0
67 23 2 -1.1794 7.41144986895302 1.7443122615886528 1.6859347041266868 0 0 0
47 16 1 0.5897 7.423035995105691 3.110782878700502 3.0089248641088573 0 0 0
53 18 1 0.5897 9.619234571845206 3.5266437240040918 3.6904341019707845 0 0 0
273 91 1 0.5897 7.03302513968744 -0.10848733324539998 1.3912137945438803 0 1 0
28 10 2 -1.1794 6.162407307489671 0.3160802884067093 4.883681390528008 0 0 0
236 79 1 0.5897 0.7989160600066257 -0.06904587338127145 1.9362153276449452 0 1 0
20 7 1 0.5897 0.4774535160719281 4.806753480969693 2.45823750494257 0 0 0
58 20 2 -1.1794 8.902237215212713 0.590951798171596 4.988636551266207 0 0 0
29 10 1 0.5897 7.088840863203387 0.3097623798651904 4.643228370403401 0 0 0
22 8 2 -1.1794 1.9934889967602367 0.8247535999782569 4.9062387072398375 0 0 0
9 3 1 0.5897 4.861029154896725 4.13231942996029 4.635324082775238 0 0 0
102 34 1 0.5897 0.17513479062808784 0.6518018198520118 5.069037128885088 1 0 0
325 109 2 -1.1794 2.9436130594331704 2.737507703285763 6.783388935207938 0 0 0
326 109 1 0.5897 2.640531342107005 2.1321774919441308 6.106715523596845 0 0 0
327 109 1 0.5897 3.878971908223797 2.5531452876717875 6.86873934445148 0 0 0
355 119 2 -1.1794 1.2327085302045235 1.8679898196071005 8.662403910844517 0 0 0
356 119 1 0.5897 1.792781413215269 2.0683181226631095 7.912577980277726 0 0 0
360 120 1 0.5897 6.012753028827157 1.3538135743288702 6.287926220363344 0 0 0
27 9 1 0.5897 2.647617799212238 4.500553492702783 6.756579186630823 0 0 0
371 124 1 0.5897 8.050484286546384 3.398048370746115 9.98000954512078 0 0 0
561 187 1 0.5897 1.197043057596803 0.05141731813473771 8.712401143544245 0 1 0
358 120 2 -1.1794 5.73040398674987 1.9932936954383704 6.941788082807504 0 0 0
361 121 2 -1.1794 9.355219948349394 2.527765065491884 7.035908438655948 0 0 0
7 3 2 -1.1794 5.6082144606311095 4.344569586673553 5.194596953185112 0 0 0
357 119 1 0.5897 0.3448911108889866 2.0492818969705264 8.354072599128104 0 0 0
393 131 1 0.5897 7.3935862958575225 1.1083347484820283 9.046570796584568 0 0 0
8 3 1 0.5897 5.653642333803352 3.620610223144349 5.819147051008778 0 0 0
359 120 1 0.5897 6.458493662386511 2.040459755676692 7.561258259913264 0 0 0
391 131 2 -1.1794 7.6420108867312875 2.0328076333044542 9.053647542165253 0 0 0
392 131 1 0.5897 8.284667362125825 2.113999445519121 8.349038921744247 0 0 0
329 110 1 0.5897 4.41891224320472 1.0215922485844082 9.465551467876885 0 0 0
362 121 1 0.5897 9.45118785396217 3.4229638662921182 6.710660914891373 0 0 0
328 110 2 -1.1794 4.2669446860674425 1.7505029013942857 10.067092716775589 0 0 0
24 8 1 0.5897 2.3616463750197605 0.12255077157316646 5.4425530753892275 0 0 0
59 20 1 0.5897 9.06227633761901 1.3035108786364145 5.607413612936256 0 0 0
335 112 1 0.5897 1.2895355047645911 3.239995357034688 9.870664634614565 0 0 0
346 116 2 -1.1794 2.416154983698559 0.320631728925441 11.804814018483167 0 0 0
348 116 1 0.5897 2.999980824718468 0.695157101778185 11.145273349771548 0 0 0
649 217 2 -1.1794 2.6651245656279294 2.3999190711813245 13.712858040113279 0 0 0
650 217 1 0.5897 2.8369757095480375 1.6786909765537426 13.107450481554293 0 0 0
651 217 1 0.5897 2.2927406347905297 1.979054984720523 14.487651597504863 0 0 0
384 128 1 0.5897 9.586242722762153 1.0707026570731093 11.189953091209313 0 0 0
386 129 1 0.5897 9.111117281328571 4.6525460748387575 13.91571530603013 0 0 0
382 128 2 -1.1794 8.933949697970494 0.8335919795107966 11.849039030234065 0 0 0
340 114 2 -1.1794 4.090161614497686 4.415689330551186 10.696816708645331 0 0 0
683 228 1 0.5897 4.394501028536787 2.986799031149441 14.01800377818826 0 0 0
347 116 1 0.5897 1.5668056337152105 0.7266770110833708 11.63177570155287 0 0 0
685 229 2 -1.1794 9.312217926915496 2.6532907061479896 13.76656914909836 0 0 0
372 124 1 0.5897 7.53087752229362 4.336898360561141 11.047869934414399 0 0 0
684 228 1 0.5897 5.506757368796998 3.92903962003854 13.609277561831036 0 0 0
332 111 1 0.5897 5.493536490783896 4.868550235368406 11.892162601401985 0 0 0
354 118 1 0.5897 6.069913660013528 1.6770089505776355 12.915862618754357 0 0 0
350 117 1 0.5897 2.629610249019759 4.3065297759137025 13.415852838981488 0 0 0
353 118 1 0.5897 7.1510246738200625 1.1613407057181024 11.990174028347559 0 0 0
352 118 2 -1.1794 6.20039882823788 1.2211157918993572 12.084461836008094 0 0 0
682 228 2 -1.1794 5.342494144611333 3.1074119235615933 14.072168787258107 0 0 0
686 229 1 0.5897 8.803349750999363 2.46319322891796 14.554536927820958 0 0 0
680 227 1 0.5897 0.07075179267703433 1.7826930084522612 15.337992396868975 0 0 0
383 128 1 0.5897 9.215513219793015 1.291743200349186 12.64082296587743 0 0 0
336 112 1 0.5897 2.190797710901526 4.146911790962796 10.681257303648946 0 0 0
334 112 2 -1.1794 1.2705216593590658 3.9793602083865505 10.478303884150245 0 0 0
330 110 1 0.5897 4.982024209338003 1.6918143747540573 10.700574113221402 0 0 0
717 239 1 0.5897 6.652674646771983 2.74767614176624 15.331302760706786 0 0 0
370 124 2 -1.1794 8.250530076836494 4.220150959286364 10.427747764227284 0 0 0
405 135 1 0.5897 0.0942131981821035 4.1859030737486425 11.975329371549082 1 0 0
341 114 1 0.5897 4.206893687738146 3.5212199619960884 10.376366577731117 0 0 0
653 218 1 0.5897 3.288990430830697 0.6575119117967004 17.39800102278719 0 0 0
715 239 2 -1.1794 7.332684323527165 2.353405122192253 15.877460056066734 0 0 0
664 222 2 -1.1794 4.028793142146613 3.7941190391216093 17.417008071055253 0 0 0
665 222 1 0.5897 3.1124471730693575 3.8378564822225303 17.69004558146907 0 0 0
671 224 1 0.5897 2.0506732131705094 1.0478977459266205 19.262476585789695 0 0 0
658 220 2 -1.1794 0.9686886808508077 3.9049598221637423 17.638963963925658 0 0 0
666 222 1 0.5897 4.156428116292652 2.883739425048585 17.149917863928557 0 0 0
670 224 2 -1.1794 1.8568500266105803 0.2804908486189922 18.7241299963902 0 0 0
652 218 2 -1.1794 4.079403251435847 0.9364873223828205 16.93586731104429 0 0 0
681 227 1 0.5897 0.7608791293147957 2.2914394374572526 16.58555115301797 0 0 0
672 224 1 0.5897 0.931006673172772 0.10053472921979473 18.887208749290515 0 0 0
654 218 1 0.5897 4.236284026042857 0.24671556590503574 16.29106825277314 0 0 0
657 219 1 0.5897 6.754749169619134 4.334738077824346 18.79048340082936 0 0 0
679 227 2 -1.1794 0.8589049335446473 1.6653221681172263 15.868235838243052 0 0 0
716 239 1 0.5897 7.172171498355495 1.4115123889505974 15.818176221109601 0 0 0
1 1 2 -1.1794 2.701243134402791 2.3633888521981765 20.502091401338827 0 0 -1
656 219 1 0.5897 5.249100456063595 4.188308598895232 18.733115202077588 0 0 0
677 226 1 0.5897 5.260550426934071 0.691447335450651 18.545400535891982 0 0 0
708 236 1 0.5897 7.7490101644283795 0.9597140576998577 18.726896921992978 0 0 0
706 236 2 -1.1794 8.692460524196413 1.0962017785181972 18.813128253755487 0 0 0
38 13 1 0.5897 9.234449212144815 2.3615933820900845 20.091956026828345 0 0 -1
695 232 1 0.5897 8.159340689266372 3.3851053418386785 17.430690902961565 0 0 0
694 232 2 -1.1794 8.472343440916053 4.1297269237367065 17.944321169736476 0 0 0
655 219 2 -1.1794 5.95502331211657 4.543450328478366 19.27318852358551 0 0 0
660 220 1 0.5897 0.8820514471647283 4.543711068004435 16.931378173562933 0 0 0
676 226 2 -1.1794 5.976901751885472 0.622052566659472 19.176296420947622 0 0 0
2 1 1 0.5897 2.5238985466717176 3.2747117720936045 20.26872708432501 0 0 -1
710 237 1 0.5897 9.404875100203903 4.459955261120899 20.862228475636417 0 0 0
659 220 1 0.5897 0.24564219741379173 4.10564889906689 18.233122649580835 0 0 0
696 232 1 0.5897 8.202713720639002 4.8985185721896345 17.44176005651745 0 0 0
36 12 1 0.5897 5.610736800627095 3.176499045202386 20.581295468618507 0 0 -1
35 12 1 0.5897 5.591541392640342 1.6652042963166898 20.49139960390826 0 0 -1
707 236 1 0.5897 8.978511607040245 0.41621076925968414 19.42307127670988 0 0 0
3 1 1 0.5897 3.610601210741867 2.3647960544854896 20.800771466353066 0 0 -1
110 37 1 0.5897 2.2377945513874073 8.621745036390477 0.7490881191077218 0 0 0
147 49 1 0.5897 9.99112527248949 9.315741245687779 0.8968135797631278 0 0 0
139 47 2 -1.1794 0.8441555337781779 8.38911229378136 1.9370518657042308 0 0 0
14 5 1 0.5897 3.7249056626396717 5.747544438592504 1.1241151460757934 0 0 0
13 5 2 -1.1794 4.438706593485673 5.785886445795564 1.7605948281276345 0 0 0
111 37 1 0.5897 3.6404269741761532 8.87519045196518 0.23911925328230044 0 0 0
141 47 1 0.5897 0.7295232721692091 7.50601174751572 2.2882696638229265 0 0 0
140 47 1 0.5897 0.617026854608099 8.968250969736333 2.664493760656228 0 0 0
149 50 1 0.5897 9.907341160301277 7.6936513943135525 3.730573106906887 0 0 0
142 48 2 -1.1794 5.427810082081066 9.211923158848474 0.21980563111125506 0 0 0
112 38 2 -1.1794 4.114618636421724 7.877279210367065 3.3596327874385534 0 0 0
114 38 1 0.5897 3.288815522157559 7.898515725385467 3.8430640640048255 0 0 0
15 5 1 0.5897 4.249979664413607 6.563305186222558 2.2862269577525023 0 0 0
19 7 2 -1.1794 0.39778530092898007 5.338437080080676 1.6663478854702336 0 0 0
113 38 1 0.5897 4.772131107357612 7.651346224437637 4.0174376326946515 0 0 0
175 59 2 -1.1794 7.043190609784932 8.725240822173971 2.3557245729843714 0 0 0
176 59 1 0.5897 7.056147177929459 7.769041518441791 2.3113060544637607 0 0 0
57 19 1 0.5897 7.585101413143644 5.401813361348582 2.4866754455555684 0 0 0
143 48 1 0.5897 5.723617962437829 9.129936600827067 1.1263261823305901 0 0 0
177 59 1 0.5897 7.807372149785832 8.999450453879433 1.8488110299706628 0 0 0
55 19 2 -1.1794 7.241282465666742 5.900345243128579 1.7454719915604977 0 0 0
711 237 1 0.5897 8.551416292150638 5.633440436303945 0.23566462098015023 0 0 1
56 19 1 0.5897 6.300458708935995 5.724401374967421 1.7536790582835198 0 0 0
674 225 1 0.5897 1.7260241059860097 5.203273130888975 0.1336979937774319 0 0 1
145 49 2 -1.1794 9.107325037394233 9.38659261580779 0.5362482950186626 0 0 0
166 56 2 -1.1794 8.549279647587834 7.2532135518427925 4.6751144263294275 0 0 0
126 42 1 0.5897 4.173621874936697 9.666210777815706 3.5625598258854154 0 0 0
167 56 1 0.5897 8.820655504116047 6.401464452084604 5.017526921657892 0 0 0
138 46 1 0.5897 6.7153033316032875 7.184287998641847 4.8625625872603315 0 0 0
109 37 2 -1.1794 2.7296236162833845 8.814961282962926 -0.04891252442156002 0 0 0
467 156 1 0.5897 5.563736512780411 8.250674769925839 6.674146499781018 0 0 0
131 44 1 0.5897 2.2587596488640846 6.816264826485311 5.5957192266669855 0 0 0
437 146 1 0.5897 4.16667584469881 7.661701691653076 9.617414708421526 0 0 0
61 21 2 -1.1794 9.260743787630828 5.263762002173392 6.442137149384984 0 0 0
62 21 1 0.5897 8.475239482407698 5.368653669136335 6.978843437283981 0 0 0
463 155 2 -1.1794 0.6532337797844048 8.649088501748002 9.193488625525418 0 0 0
344 115 1 0.5897 0.7691853177112834 5.504684232142437 9.188297083138588 0 0 0
345 115 1 0.5897 0.6935303960884973 6.9721143065213695 8.82317564779411 0 0 0
435 145 1 0.5897 2.5174981251670947 9.09752335268835 6.609146257317279 0 0 0
468 156 1 0.5897 4.401278002365498 8.925198825241562 7.370922103195693 0 0 0
433 145 2 -1.1794 2.6852689328678454 9.503700122376356 7.459388386031294 0 0 0
337 113 2 -1.1794 4.665653492229174 6.128370982751839 8.543951626307962 0 0 0
464 155 1 0.5897 1.4096983398238838 8.837049091792528 8.638022512146472 0 0 0
338 113 1 0.5897 5.577459933559849 5.987098750956757 8.289383928132889 0 0 0
470 157 1 0.5897 8.949502021015224 8.738490961655668 7.624446863152672 0 0 0
63 21 1 0.5897 9.936657932943579 5.756973822054467 6.906963656678852 0 0 0
469 157 2 -1.1794 9.35919882644915 8.909365574901308 6.776521927568906 0 0 0
379 127 2 -1.1794 7.290428407125465 5.718947503626576 8.237194421969964 0 0 0
500 167 1 0.5897 7.398849926981989 9.144668503515637 9.570323966047003 0 0 0
380 127 1 0.5897 7.4282100878792585 6.592432530799081 8.603832119753179 0 0 0
466 156 2 -1.1794 5.355362809499719 8.946782382419997 7.2972528636691445 0 0 0
343 115 2 -1.1794 0.51697370347595 6.096318595185496 8.479396633449221 0 0 0
26 9 1 0.5897 1.8594505473327776 5.586094930060825 7.4582687810039925 0 0 0
499 167 2 -1.1794 7.377963804768074 8.435910926630628 8.927396930851746 0 0 0
501 167 1 0.5897 6.5791210531868005 8.59215097664707 8.423886538541796 0 0 0
381 127 1 0.5897 7.560140430149029 5.120704735229191 8.93400559125363 0 0 0
339 113 1 0.5897 4.155661518186094 5.781395219973047 7.812130339866452 0 0 0
137 46 1 0.5897 5.665521125292588 6.216119682007247 5.365148798246077 0 0 0
168 56 1 0.5897 8.677741816999344 7.857869543293357 5.405907310214297 0 0 0
438 146 1 0.5897 3.9563683763045736 9.056182390983324 10.168286715454212 0 0 0
132 44 1 0.5897 1.3027649705059463 7.908475221614088 5.165473153190867 0 0 0
25 9 2 -1.1794 2.4961055234750806 5.445802767128842 6.757530956860303 0 0 0
136 46 2 -1.1794 5.8482845256710405 7.1506457708241005 5.266650422452095 0 0 0
130 44 2 -1.1794 2.2343876566006267 7.717371508481118 5.27354448165524 0 0 0
342 114 1 0.5897 4.278670853871348 4.968892132311019 9.938806223134312 0 0 0
385 129 2 -1.1794 9.090155357522464 5.564116308005874 14.20726668812047 0 0 0
757 253 2 -1.1794 2.5748747689262563 8.892750315049492 14.137528189416942 0 0 0
759 253 1 0.5897 2.2371245688593953 8.595461592998367 13.292786374079817 0 0 0
460 154 2 -1.1794 6.275533454490186 7.835276658102726 12.010939099561972 0 0 0
454 152 2 -1.1794 1.922363544091437 7.394345513690775 11.843130823389068 0 0 0
456 152 1 0.5897 2.1113651709102323 6.578199183336857 12.306289223504727 0 0 0
351 117 1 0.5897 3.2611155965501544 5.524706620591869 14.055649199987569 0 0 0
455 152 1 0.5897 2.6936995852644903 7.544247774107206 11.296617384589755 0 0 0
333 111 1 0.5897 6.381285211307651 6.013418827522868 12.331765093874724 0 0 0
793 265 2 -1.1794 9.242133563513063 9.270853581433789 14.345741808023424 0 0 0
387 129 1 0.5897 8.891845153425228 6.064807326855851 13.416006286820036 0 0 0
533 178 1 0.5897 0.04402717103834969 7.7134779899556944 11.85106766919398 1 0 0
792 264 1 0.5897 4.4050060981893555 9.09873018911581 14.415836897271175 0 0 0
491 164 1 0.5897 9.454019478596042 7.723763879565556 11.575002416467983 0 0 0
462 154 1 0.5897 5.58220378424632 7.835213511102027 11.351108663870944 0 0 0
791 264 1 0.5897 5.834017716592605 9.125237847505566 14.9147139123841 0 0 0
794 265 1 0.5897 9.147292713028428 8.712620774956706 13.574053157076726 0 0 0
490 164 2 -1.1794 8.883290030928837 7.70721925380035 12.343138008043585 0 0 0
492 164 1 0.5897 7.998236648237942 7.781043211670863 11.986261231928598 0 0 0
461 154 1 0.5897 5.879105772054572 8.25303877567989 12.77541501567248 0 0 0
349 117 2 -1.1794 2.4929124250981953 5.2431570545285835 13.558931430201975 0 0 0
790 264 2 -1.1794 5.308419690159845 9.208125964087982 14.119176399616336 0 0 0
705 235 1 0.5897 7.882673828043918 5.784072201953496 15.526144907304337 0 0 0
668 223 1 0.5897 1.09709527640552 5.508353617494513 15.030181692939117 0 0 0
758 253 1 0.5897 2.48301649850263 9.84528190611319 14.111068600539898 0 0 0
789 263 1 0.5897 1.255923995920932 8.913986020793685 15.372409958940187 0 0 0
436 146 2 -1.1794 4.087913979530549 8.147270627511526 10.438454086248369 0 0 0
331 111 2 -1.1794 6.318966488013468 5.058153205888984 12.338069189166518 0 0 0
661 221 2 -1.1794 4.41070009988244 5.768571211252651 15.486646622260828 0 0 0
824 275 1 0.5897 8.001337291826658 8.826533998070957 15.500898384607781 0 0 0
815 272 1 0.5897 9.168018619811487 6.873126858985266 19.727730194653148 0 0 0
858 286 1 0.5897 0.14429594448345673 7.283375917251285 19.058125093450187 1 0 0
825 275 1 0.5897 7.07075747029414 7.861453062538437 16.20415411370644 0 0 0
761 254 1 0.5897 4.338102047179958 8.869529461000841 17.131851345978436 0 0 0
780 260 1 0.5897 2.6117677134042774 7.141629957133145 18.29461050934289 0 0 0
760 254 2 -1.1794 4.197173449000164 7.931991579154259 17.264502174521724 0 0 0
778 260 2 -1.1794 2.0840527667949322 7.01267638606023 19.08259963914543 0 0 0
779 260 1 0.5897 2.2132117878574498 7.813125256301871 19.591443471836794 0 0 0
675 225 1 0.5897 2.5938004162522335 5.925293069242696 20.183656388081197 0 0 0
144 48 1 0.5897 5.761443745265239 8.426213982084398 20.84520058653852 0 0 -1
814 272 2 -1.1794 8.797201232792762 7.632827007238301 19.278680033026582 0 0 0
823 275 2 -1.1794 7.209968670138368 8.793941586521298 16.038276826321813 0 0 0
762 254 1 0.5897 4.856993861235703 7.679078111470491 17.91006173879183 0 0 0
786 262 1 0.5897 6.93052007501697 7.349685043294804 19.31136356395239 0 0 0
785 262 1 0.5897 5.931714927206768 6.218208819677325 19.430949276459632 0 0 0
816 272 1 0.5897 8.887694795466427 8.350331775480084 19.905775255973982 0 0 0
787 263 2 -1.1794 0.7204948622322864 8.709152416081164 16.13884225373754 0 0 0
788 263 1 0.5897 0.9623950225799973 9.372882599981102 16.78471902694207 0 0 0
784 262 2 -1.1794 5.999516427251613 7.172999269104021 19.446238361832933 0 0 0
667 223 2 -1.1794 0.577204139141821 5.841668002678273 15.761412669164272 0 0 0
662 221 1 0.5897 4.134317020754309 5.126501255335197 16.14053296026277 0 0 0
669 223 1 0.5897 0.7092604225994614 6.78952291370045 15.737517824040209 0 0 0
703 235 2 -1.1794 7.236514157285554 6.047706094980854 16.181176722884206 0 0 0
663 221 1 0.5897 4.323363570726041 6.61358099626634 15.927830216641585 0 0 0
673 225 2 -1.1794 2.613242860049553 5.222921232163656 20.833684556302792 0 0 0
704 235 1 0.5897 6.399233945765288 5.749462318485964 15.825968419515807 0 0 0
709 237 2 -1.1794 9.330854966544162 5.41125657366245 20.785110907254523 0 0 0
120 40 1 0.5897 0.8811207253535466 11.155901519294478 3.1556374895458976 0 0 0
129 43 1 0.5897 0.6364885853913046 13.247681110146065 2.097733204134512 0 0 0
240 80 1 0.5897 2.597132189243753 14.31163330124723 4.373103114784381 0 0 0
118 40 2 -1.1794 1.2146827904634407 10.609392395504695 3.8671022064697516 0 0 0
127 43 2 -1.1794 0.456351155605347 12.347115088498752 1.8276592889073133 0 0 0
275 92 1 0.5897 7.970540353980859 14.241455016768795 4.964883572424407 0 0 0
781 261 2 -1.1794 2.724508376759187 11.621955731399439 0.014959241331380074 0 0 1
163 55 2 -1.1794 7.585515754494217 12.685128085304235 1.5946080723613154 0 0 0
123 41 1 0.5897 4.319286090254135 12.367734440647052 0.8088037801251908 0 0 0
222 74 1 0.5897 4.161745539826027 14.054074295850233 2.5229736312745783 0 0 0
119 40 1 0.5897 2.165916877099369 10.702321670129976 3.815394766507183 0 0 0
122 41 1 0.5897 4.5983860920713235 12.02530091999969 2.256600831052345 0 0 0
819 273 1 0.5897 8.795532864194556 12.292606515536853 0.28399882641365015 0 0 1
276 92 1 0.5897 9.350031442033568 14.32419039461533 4.347005926422999 0 0 0
121 41 2 -1.1794 4.833931550432312 12.645358507211686 1.5665140175209982 0 0 0
124 42 2 -1.1794 4.212334214915581 10.622722858524888 3.5657045068269575 0 0 0
164 55 1 0.5897 6.660054622732501 12.566403829556252 1.3811347774703935 0 0 0
156 52 1 0.5897 8.660768323918415 10.926699114139305 3.9074496446719538 0 0 0
285 95 1 0.5897 7.692358563049111 14.60021864043817 1.9832821725708603 0 0 0
783 261 1 0.5897 1.8581346913279213 11.743949391506566 0.4030890808109976 0 0 1
165 55 1 0.5897 7.716959780775738 12.167110898733656 2.388644699597651 0 0 0
154 52 2 -1.1794 7.705946188973285 10.989219712573268 3.931350717082937 0 0 0
125 42 1 0.5897 4.647657563985825 10.842647775453157 4.389193078933688 0 0 0
220 74 2 -1.1794 3.847244074940802 14.52287708524841 3.2959089164879054 0 0 0
155 52 1 0.5897 7.401775998815279 10.135055808564536 3.6243344248710407 0 0 0
274 92 2 -1.1794 8.83070280638486 13.821657134983095 4.97463234894498 0 0 0
146 49 1 0.5897 8.96629833380616 10.327437561709846 0.4296931488286866 0 0 0
188 63 1 0.5897 -0.018697935540593846 11.180915747640736 4.938394546512282 1 0 0
238 80 2 -1.1794 1.9607489594665801 14.404729646060218 5.081919360411883 0 0 0
246 82 1 0.5897 5.450527017941532 14.152261635470206 4.668337184876705 0 0 0
317 106 1 0.5897 0.12793096296317844 14.219981100590067 4.925224997823933 1 0 0
782 261 1 0.5897 2.7869520407846924 10.679551799285184 -0.14131369171829888 0 0 1
133 45 2 -1.1794 2.4334485350108874 12.12319179812124 6.634399034090641 0 0 0
134 45 1 0.5897 1.6700843238956133 12.20996609705689 7.205214857162207 0 0 0
135 45 1 0.5897 3.170172411154353 12.411075423171743 7.173373030108308 0 0 0
239 80 1 0.5897 1.8792828876484362 13.524131365544447 5.448389143023466 0 0 0
117 39 1 0.5897 5.856082077960686 10.626804148920444 6.372784463147802 0 0 0
446 149 1 0.5897 3.892113125761554 13.516002666202207 9.042638967239654 0 0 0
115 39 2 -1.1794 5.72597213951379 11.350104619800481 5.7594712827918535 0 0 0
447 149 1 0.5897 5.197829683340154 12.815210479984499 8.732989843114144 0 0 0
169 57 2 -1.1794 8.707692071333945 11.65871094001468 6.945935517997076 0 0 0
453 151 1 0.5897 0.8166822423525887 12.377328073389695 9.376626834055985 0 0 0
171 57 1 0.5897 8.953894750843137 10.767427295544508 6.698195522871665 0 0 0
445 149 2 -1.1794 4.259271680903413 12.783396130301258 8.547893189039996 0 0 0
480 160 1 0.5897 7.334494285911026 11.542685126545495 10.043859240321176 0 0 0
443 148 1 0.5897 0.9036236897882173 10.16262534834699 10.141071585589703 0 0 0
487 163 2 -1.1794 6.821059496886344 13.026593307733151 8.918595863287411 0 0 0
489 163 1 0.5897 7.251861576903739 13.8338848444793 9.199669245295343 0 0 0
488 163 1 0.5897 7.431098738143412 12.633701558945322 8.294425605809153 0 0 0
450 150 1 0.5897 4.039902943087942 11.53544901790552 9.78432343902918 0 0 0
170 57 1 0.5897 8.847919783478874 12.17581360883308 6.152811193394767 0 0 0
451 151 2 -1.1794 0.4880040275843146 13.033884528452617 8.762515805794967 0 0 0
579 193 1 0.5897 8.959584498067796 15.005423328961454 6.419423204345339 0 0 0
434 145 1 0.5897 2.8747007575381067 10.419487813853848 7.254830324013282 0 0 0
245 82 1 0.5897 5.715643735916712 13.244903914518932 5.850755347886658 0 0 0
244 82 2 -1.1794 5.81857021430498 14.148468993421302 5.5517970433132 0 0 0
573 191 1 0.5897 0.49934434463019084 14.863382412584263 8.934709003620897 0 0 0
116 39 1 0.5897 6.558951495707486 11.422409775987143 5.293598680376134 0 0 0
457 153 2 -1.1794 2.303013496510525 11.681811426257203 13.715911854993239 0 0 0
458 153 1 0.5897 1.7182779538017374 11.862988625066096 14.451634735155766 0 0 0
459 153 1 0.5897 3.1633890379152865 11.975790286358066 14.015054062797423 0 0 0
562 188 2 -1.1794 1.722852803395883 13.953529224247099 12.207417470884833 0 0 0
563 188 1 0.5897 2.0792167594196345 13.153793305154576 12.594400634128569 0 0 0
441 147 1 0.5897 5.608849508819665 10.550274794938234 13.070809604099473 0 0 0
598 200 2 -1.1794 8.529541226558589 13.997727396466743 11.88941269001805 0 0 0
495 165 1 0.5897 9.919919467411553 12.082081725497929 14.113087847648696 0 0 0
440 147 1 0.5897 6.340036268147189 11.087957411541662 11.85928930345522 0 0 0
811 271 2 -1.1794 7.223003181489778 12.52921976944345 15.38407231772991 0 0 0
444 148 1 0.5897 2.1153576484592214 10.93869905009755 10.611489160212697 0 0 0
568 190 2 -1.1794 5.768963011104422 14.402025044197083 12.072233822471304 0 0 0
570 190 1 0.5897 6.697813669784996 14.464291367854596 11.849701943139452 0 0 0
795 265 1 0.5897 9.297534160377467 10.159468372959394 13.994077080818139 0 0 0
769 257 2 -1.1794 4.2877521536147585 12.887082710652795 15.121818227737641 0 0 0
478 160 2 -1.1794 7.479462557621836 10.7331946841106 10.533763216437077 0 0 0
564 188 1 0.5897 1.9182859250283455 14.637851866187962 12.847513025525162 0 0 0
493 165 2 -1.1794 9.133621474038703 11.821865672351123 13.63333013652349 0 0 0
479 160 1 0.5897 8.431693842043902 10.649759683012249 10.582968211408714 0 0 0
494 165 1 0.5897 8.417846235855864 11.95711757910773 14.25419361617148 0 0 0
599 200 1 0.5897 8.698333319001426 13.248304756167792 12.4605063548308 0 0 0
439 147 2 -1.1794 5.595156873465378 11.264602423450455 12.433791233212006 0 0 0
569 190 1 0.5897 5.654797325345604 13.501427926351356 12.375990992404564 0 0 0
642 214 1 0.5897 -0.09894318300891548 14.226280279130108 12.015417694448418 1 0 0
449 150 1 0.5897 4.3789017822334095 11.018365798617099 11.166039402566803 0 0 0
770 257 1 0.5897 5.236493237258308 12.974113088158036 15.213963757783455 0 0 0
600 200 1 0.5897 8.949931381732599 14.735698103364898 12.330971379132835 0 0 0
546 182 1 0.5897 4.386060489327867 14.607646103105603 10.968542961127287 0 0 0
545 182 1 0.5897 2.929970944059116 14.201252600237433 10.888540935152333 0 0 0
442 148 2 -1.1794 1.1610375558195711 10.986355890917318 10.555260986740327 0 0 0
448 150 2 -1.1794 3.8780465458752094 10.803287136481494 10.379309026266549 0 0 0
544 182 2 -1.1794 3.639791934857063 14.579779622696815 10.369884084008394 0 0 0
886 296 2 -1.1794 2.153625817329037 13.827853141013655 19.25678767840223 0 0 0
766 256 2 -1.1794 1.531696705293368 10.835425587802785 17.896936890941056 0 0 0
768 256 1 0.5897 1.287015411968171 11.517967193004802 17.27206721456607 0 0 0
773 258 1 0.5897 3.3371553280856205 10.781222732517643 17.397174056653515 0 0 0
777 259 1 0.5897 0.8595155593164284 13.242740508134835 15.839163384636791 0 0 0
888 296 1 0.5897 2.146299500176171 12.96721439238037 19.675843012044133 0 0 0
767 256 1 0.5897 0.7598170023179186 10.731588844605591 18.453255946496768 0 0 0
924 308 1 0.5897 9.533760821550553 14.30299074081558 17.82258835455647 0 0 0
868 290 2 -1.1794 4.007077744579216 14.230023467558757 17.509863355187676 0 0 0
772 258 2 -1.1794 4.272331197546604 10.88827345096231 17.22356042285149 0 0 0
965 322 1 0.5897 0.21376215598522524 13.895560855207098 19.077855540510434 1 0 0
774 258 1 0.5897 4.310577970612919 11.299043726821226 16.35992236380873 0 0 0
810 270 1 0.5897 9.73725047744914 10.909092184088403 17.894626717466156 0 0 0
764 255 1 0.5897 5.374363927757231 11.230441614265727 18.937518221453672 0 0 0
870 290 1 0.5897 4.848499810300708 13.992886632160262 17.899632155696764 0 0 0
771 257 1 0.5897 3.9279559178001646 13.416650778414581 15.833275271811189 0 0 0
765 255 1 0.5897 5.8224332190462516 10.855185751294565 20.33386177265297 0 0 0
818 273 1 0.5897 9.28789245929387 12.680458028601034 19.964720421804223 0 0 0
894 298 1 0.5897 6.138428850624031 13.244366506859727 19.327308638746185 0 0 0
813 271 1 0.5897 7.368886023893587 11.989065070759215 16.160658093507624 0 0 0
922 308 2 -1.1794 9.039909676785538 14.179832141831604 18.633132758217418 0 0 0
803 268 1 0.5897 7.3819455097856 11.125343233765188 18.474583196954462 0 0 0
763 255 2 -1.1794 5.978550763334809 11.488633241084592 19.633457138286865 0 0 0
893 298 1 0.5897 7.035759690878664 14.345420977842362 18.803425398050038 0 0 0
802 268 2 -1.1794 7.960962100342547 11.01320956396889 17.7207818223858 0 0 0
892 298 2 -1.1794 6.151314613889887 14.181092199744388 19.13035105737518 0 0 0
869 290 1 0.5897 3.3625291633442886 14.02477493804408 18.186998193406122 0 0 0
895 299 2 -1.1794 0.892962060232739 15.013181319058791 16.12017580953502 0 0 0
923 308 1 0.5897 9.277740243088093 14.931830727647023 19.175545515403787 0 0 0
775 259 2 -1.1794 0.7575905294266448 12.300630561753458 15.703217492277826 0 0 0
812 271 1 0.5897 7.513660330977412 13.404087393920394 15.64195018242862 0 0 0
817 273 2 -1.1794 9.402690424599976 12.02501647434503 20.6527768634318 0 0 0
887 296 1 0.5897 2.4956020848229654 14.418747719585603 19.927666263250025 0 0 0
804 268 1 0.5897 7.649909112427219 10.213704074643283 17.296109105095756 0 0 0
221 74 1 0.5897 3.703280112505719 15.418910453499588 2.9912780371090815 0 0 0
233 78 1 0.5897 4.137216882802407 17.804010975199297 2.7338624417372777 0 0 0
247 83 2 -1.1794 0.7004995362499762 15.174532021841806 2.1935570593400566 0 0 0
251 84 1 0.5897 6.175821908160377 15.753231732561435 0.8786443235627388 0 0 0
248 83 1 0.5897 0.88792411177048 15.75264487743146 2.933029025888888 0 0 0
927 309 1 0.5897 8.060752074046983 19.02158213410459 -0.036453121456605536 0 0 1
224 75 1 0.5897 4.91490783856673 17.766368099240307 5.055866742722184 0 0 0
229 77 2 -1.1794 4.092065556788825 19.13610111725142 1.4136580131655019 0 0 0
227 76 1 0.5897 0.946885126935497 17.874315734133972 2.8821173879147146 0 0 0
232 78 2 -1.1794 4.051236835498981 17.378193254747572 3.586716700248341 0 0 0
234 78 1 0.5897 3.11332834152471 17.406587030876437 3.77562590900372 0 0 0
226 76 2 -1.1794 1.249719648107791 17.5298841947104 3.7221770928442006 0 0 0
228 76 1 0.5897 0.6400700577676893 17.893403764145614 4.364266623997516 0 0 0