LAMMPS data file via write_data, version 30 Jul 2021, timestep = 10250000

1008 atoms
2 atom types
672 bonds
1 bond types
336 angles
1 angle types

-3.0245558817127876 14.634554881269471 xlo xhi
-0.024404330558112974 22.604403330565148 ylo yhi
0.1354351015394979 19.09456289846365 zlo zhi
-0.10294436373549702 -6.606504949412813 0.12851604591354587 xy xz yz

Masses

1 1.008
2 15.999

Pair Coeffs # lj/cut/tip4p/long/omp

1 0 0
2 0.21084 3.1668

Bond Coeffs # harmonic/omp

1 450 0.9572

Angle Coeffs # harmonic/omp

1 55 104.52

Atoms # full

21 7 1 0.5897 1.2281850350475736 2.3901847762196833 0.9805756121926726 0 0 0
31 11 2 -1.1794 1.36876229152125 1.2101734206835755 2.3943901802529033 0 0 0
32 11 1 0.5897 1.1986845644062125 1.5318931419924051 3.2797841383784925 0 0 0
33 11 1 0.5897 0.6676906137772818 0.5797184410007343 2.2293533666355603 0 0 0
46 16 2 -1.1794 1.9077136812433162 4.711739377520073 2.45150095170516 0 0 0
55 19 2 -1.1794 -0.6007434901798714 4.316459593626406 3.5278944126423033 0 0 0
56 19 1 0.5897 -1.1682788027191129 3.7496674079366272 3.00549056159199 0 0 0
57 19 1 0.5897 0.19383404148959293 4.410432250964144 3.0023939165803637 0 0 0
86 29 1 0.5897 -2.1776167874363996 1.5678555605487992 4.0353261069777275 1 0 0
78 26 1 0.5897 0.19502136643646573 2.9910656170131964 4.508694740931379 0 0 0
121 41 2 -1.1794 -2.2994242324599483 2.4987183949508207 2.471918905932484 1 0 0
122 41 1 0.5897 -2.2603160071751685 2.078968481724271 1.6124905532643754 1 0 0
123 41 1 0.5897 -3.195114937081825 2.8302318440084404 2.5365929551362205 1 0 0
53 18 1 0.5897 4.508927989119681 2.9590605769419556 3.0424300486721827 0 0 0
158 53 1 0.5897 -4.156332030518657 4.541282952024691 4.397363838347965 1 0 0
47 16 1 0.5897 2.0560224745918427 5.192071119013012 1.6369371793286287 0 0 0
16 6 2 -1.1794 5.422647160706818 4.937020651775046 0.2987289199505997 0 0 0
48 16 1 0.5897 2.064700228690393 5.355802215833481 3.142020102687321 0 0 0
71 24 1 0.5897 3.1056871668404913 0.7590732864274184 2.0453849245907354 0 0 0
54 18 1 0.5897 3.119147876339289 3.5568504275254362 3.1000826333671423 0 0 0
527 176 1 0.5897 4.086492505226227 1.95938185141786 0.44771244577920316 0 0 1
101 34 1 0.5897 -2.4433511747476673 4.551792331860864 0.21942041664854844 1 0 0
52 18 2 -1.1794 3.7699302323642945 3.1012111751074487 3.6340741571776785 0 0 0
70 24 2 -1.1794 3.8883637722235376 0.5823863823630753 1.5233045203519382 0 0 0
602 201 1 0.5897 -0.4293578767978463 5.407317252705094 0.5094125192269408 1 0 1
6 2 1 0.5897 3.7206002859007867 1.695863904849919 4.710871521484325 0 0 0
482 161 1 0.5897 -0.9587353003415449 0.10510376950774933 0.976125625079978 1 1 0
76 26 2 -1.1794 0.8542910445951968 2.370009089357369 4.818385850608174 0 0 0
18 6 1 0.5897 4.98074027787567 4.097467441609783 0.17214658406518935 0 0 0
72 24 1 0.5897 4.427087656967341 0.0209882489800712 2.080844400093916 0 0 0
97 33 2 -1.1794 -3.9577532789286676 4.77698531815986 9.421161480569975 1 0 0
126 42 1 0.5897 -4.060214695538775 2.8285375897665745 7.314050209028698 1 0 0
87 29 1 0.5897 -3.2544493606289855 1.0539322827949287 4.967169460085078 1 0 0
34 12 2 -1.1794 0.13201430672458336 1.38520426708609 7.257805310026136 0 0 0
35 12 1 0.5897 0.2863867046237787 1.9926120984148312 7.981347642864571 0 0 0
36 12 1 0.5897 -0.7257895580048674 1.0033763653574452 7.443952055390753 0 0 0
43 15 2 -1.1794 -0.2532613666593502 4.907682711436046 7.211873876343172 0 0 0
44 15 1 0.5897 -0.2879406775701421 5.236906400987514 8.11006754402808 0 0 0
45 15 1 0.5897 0.664251553337535 4.669284477394405 7.078867644869637 0 0 0
58 20 2 -1.1794 2.255394016773046 4.158530651280874 6.310478524626121 0 0 0
59 20 1 0.5897 1.8915619936741095 3.4915808728641013 5.728195889051942 0 0 0
60 20 1 0.5897 2.9525817875413534 3.7072120368525106 6.786419941321255 0 0 0
67 23 2 -1.1794 -2.2583435540044547 0.4783424941915828 8.234722111821325 0 0 0
159 53 1 0.5897 -3.1133385554567328 4.544082903197384 5.494749842692603 1 0 0
69 23 1 0.5897 -2.515909716901172 1.216227999005582 8.787416918970031 0 0 0
134 45 1 0.5897 -2.1971445130963065 2.6107799687432447 6.0859486013754 1 0 0
77 26 1 0.5897 0.4708049492920585 1.986470615100533 5.607116220102697 0 0 0
135 45 1 0.5897 -1.6248971267837429 3.7504903230564874 6.901719894186477 1 0 0
98 33 1 0.5897 -3.932224014953047 5.219614308795918 8.572829738273404 1 0 0
669 223 1 0.5897 -5.171268108165748 1.7499376699305038 9.035843698160582 1 0 0
522 174 1 0.5897 2.1324617918053947 5.433811901312997 9.172478703087794 0 0 0
124 42 2 -1.1794 -4.942354630050441 2.487465990878951 7.46163296126487 1 0 0
133 45 2 -1.1794 -2.452712395682462 3.3424577507115387 6.6477497583142435 1 0 0
402 134 1 0.5897 1.332889391972353 0.125073847533275 7.910358590482912 0 1 0
68 23 1 0.5897 -3.0810101728571397 0.1552333845843611 7.867150204665261 0 0 0
401 134 1 0.5897 2.403340942928274 0.2789062279956299 8.969872382037645 0 1 0
4 2 2 -1.1794 3.9003623921065698 0.9800732709908799 5.320381172505396 0 0 0
5 2 1 0.5897 3.236622576367319 0.3206263169981543 5.118420383281899 0 0 0
157 53 2 -1.1794 -3.6409358929099924 5.128485730385866 4.950368547158192 1 0 0
11 4 1 0.5897 2.363762536790791 5.640046876008337 5.257436098481307 0 0 0
22 8 2 -1.1794 0.35908996995531073 2.825811481328322 9.568003238003227 0 0 0
85 29 2 -1.1794 -2.3097007892118757 1.1960681394349075 4.907442162893829 1 0 0
525 175 1 0.5897 -1.4954228091593436 2.8771213267602924 9.820612588212258 0 0 0
523 175 2 -1.1794 -2.3939253787983645 2.595782756392319 9.993347046700615 0 0 0
668 223 1 0.5897 -5.623154873221789 1.7763061974134162 10.480582674315652 1 0 0
23 8 1 0.5897 0.5951903870614239 2.1307019120550885 10.182218966801656 0 0 0
627 209 1 0.5897 -6.747972048403669 2.9931433894222135 12.170438434230588 1 0 0
99 33 1 0.5897 -3.82276004726292 5.476100125227073 10.060912552750404 1 0 0
625 209 2 -1.1794 -5.8741624150474925 2.6439154227386426 11.994799893629372 1 0 0
524 175 1 0.5897 -2.930004804898715 3.359192807045349 9.778766312253923 0 0 0
535 179 2 -1.1794 -1.8710682047251108 1.1401985564193402 12.246687186560461 0 0 0
536 179 1 0.5897 -2.0655216657778865 1.631727368722682 13.044763968561277 0 0 0
537 179 1 0.5897 -2.109444021525668 1.7341173945410886 11.534897032493813 0 0 0
550 184 2 -1.1794 -1.6162550199226082 4.9536852773117745 12.0046622320791 0 0 0
626 209 1 0.5897 -5.73422154393575 1.9912800249774656 12.680854102761032 1 0 0
552 184 1 0.5897 -2.5273915721583693 4.743449410677843 12.209456922711516 0 0 0
556 186 2 -1.1794 0.49997744106764497 3.537848154543696 13.024316800059523 0 0 0
557 186 1 0.5897 0.2733516520233854 2.7405658772263704 13.502974870550778 0 0 0
558 186 1 0.5897 -0.3231320741390409 3.8206268181852545 12.625769488386595 0 0 0
559 187 2 -1.1794 -4.051978479390883 4.34865791680516 13.110743900544458 0 0 0
560 187 1 0.5897 -4.703953240054029 3.8220988026807543 12.648226829648035 0 0 0
561 187 1 0.5897 -3.589007326064788 3.7227256089289527 13.667598091704463 0 0 0
574 192 2 -1.1794 0.6093772631263126 0.6070484316387972 11.159681090534654 0 0 0
576 192 1 0.5897 -0.12916016659509122 0.7336978130836403 11.755406144175442 0 0 0
667 223 2 -1.1794 -5.360122538619393 1.178868510305389 9.780433424211962 1 0 0
662 221 1 0.5897 -7.394790944621918 4.61347202738164 14.042242620185862 1 0 0
986 329 1 0.5897 -4.260770147880862 0.13707277210026356 10.68481376149025 1 1 0
520 174 2 -1.1794 2.3532050969806946 4.7289675530337405 9.781285654515827 0 0 0
589 197 2 -1.1794 -5.615204464102014 0.9709222005919546 14.176863374397481 1 0 0
575 192 1 0.5897 1.249587003918255 0.11373198897444398 11.672551743328222 0 0 0
551 184 1 0.5897 -1.3430272365887994 5.5451504448147535 12.705943651537815 0 0 0
606 202 1 0.5897 -5.8277564049537425 4.687868596618113 9.659126288879762 1 0 0
24 8 1 0.5897 1.0438458284567371 3.4855815768576304 9.677619409870452 0 0 0
587 196 1 0.5897 -1.0956112209742597 5.634458054312635 10.410761224470304 0 0 0
20 7 1 0.5897 -5.587976226284287 2.130513041905508 18.491426637899586 0 0 -1
628 210 2 -1.1794 -7.895170428864809 2.5892408789583397 16.745007089842765 1 0 0
164 55 1 0.5897 -8.299886143032264 1.8495003401938237 18.279688831196857 1 0 -1
661 221 2 -1.1794 -6.808441659466364 5.279773207966857 14.400651038004407 1 0 0
638 213 1 0.5897 -6.197650552010388 3.0478701022019297 16.281842260785197 1 0 0
639 213 1 0.5897 -5.7131639849785465 3.956503612045582 15.17212487864782 1 0 0
629 210 1 0.5897 -8.482216014029571 3.3329628565977716 16.60900815133212 1 0 0
637 213 2 -1.1794 -5.421498804105898 3.2638592995971214 15.764884138205668 1 0 0
538 180 2 -1.1794 -3.12171354172027 1.1050480722601275 16.682790925956553 0 0 0
539 180 1 0.5897 -2.8880442308523415 1.7795413289155402 17.32053730427677 0 0 0
540 180 1 0.5897 -4.035673891682115 0.8972889458435105 16.877269880493024 0 0 0
547 183 2 -1.1794 -3.560716132241641 4.967552473914555 16.82811639651665 0 0 0
630 210 1 0.5897 -8.102576885386956 1.9861565550531708 16.031174156072506 1 0 0
549 183 1 0.5897 -4.208243092349752 4.312660967650806 16.56727320926182 0 0 0
562 188 2 -1.1794 -0.9962799201116059 4.296151805931361 16.082638890719473 0 0 0
563 188 1 0.5897 -0.8490478895793485 5.037295118620772 15.495119151894338 0 0 0
564 188 1 0.5897 -1.8084439671605992 4.511212896614665 16.541449174023057 0 0 0
571 191 2 -1.1794 -5.596580386215139 0.5226987727143211 17.66256932898318 0 0 0
528 176 1 0.5897 -3.5664606332755637 3.0199701067881546 18.833994214598142 0 0 0
581 194 1 0.5897 -2.757135848389331 2.015224802054948 15.163625738606955 0 0 0
582 194 1 0.5897 -1.8413112114638563 3.2056639015030006 14.97433697608266 0 0 0
590 197 1 0.5897 -5.38749495351661 1.6591926511072692 14.801916256217794 1 0 0
580 194 2 -1.1794 -2.417860145887028 2.610457427399054 14.495207266815285 0 0 0
508 170 2 -1.1794 0.5608435796158968 1.1550768376960465 14.516198201216044 0 0 0
601 201 2 -1.1794 -7.256664768606202 4.864891099557876 18.822514438626506 1 0 0
526 176 2 -1.1794 -2.6352500326123254 2.804223517106156 18.782527610378537 0 0 0
165 55 1 0.5897 -9.251649336785587 0.7453948236342498 18.688150487314907 1 0 -1
548 183 1 0.5897 -3.636135991000061 5.655929793869329 16.167342642263215 0 0 0
603 201 1 0.5897 -6.577063980880588 4.198846863628013 18.926427102168773 1 0 0
19 7 2 -1.1794 -5.397673406934301 2.881206252246209 19.05399739561682 0 0 -1
163 55 2 -1.1794 -8.636457071329534 1.3853686161414958 19.046197725422708 1 0 -1
84 28 1 0.5897 -3.8517752667276737 5.740004353733207 18.43467654084467 0 0 -1
593 198 1 0.5897 -7.47965073557069 0.8215755970894536 14.381098103085778 1 0 0
591 197 1 0.5897 -5.004660840625103 0.259546646006877 14.370315851683314 1 0 0
112 38 2 -1.1794 -2.976253939546105 6.367939090313563 2.6177679345107205 1 0 0
145 49 2 -1.1794 -0.46893268296440604 6.814921854023807 1.602224704459541 1 0 0
146 49 1 0.5897 -1.2318036360473517 6.571285929404327 2.126603453669156 1 0 0
147 49 1 0.5897 -0.7894970037072531 7.500828556961004 1.0165942313406982 1 0 0
255 85 1 0.5897 -2.227919262852441 8.979349133810969 3.9880910513271366 1 0 0
289 97 2 -1.1794 -2.532190206861606 10.0578977045334 2.5123672720838823 1 0 0
290 97 1 0.5897 -1.9665185436874757 10.789345070497495 2.7597414441378656 1 0 0
291 97 1 0.5897 -3.4167952010674814 10.356366747189387 2.7239045226453023 1 0 0
332 111 1 0.5897 -2.0854755318035467 9.301644629246931 0.9749879769617109 1 0 0
188 63 1 0.5897 0.8885399238140659 9.786215078099024 1.3122358442666968 0 0 0
200 67 1 0.5897 0.587163653395347 7.9441178950319715 2.4259648689322386 0 0 0
240 80 1 0.5897 3.350721459899116 7.341614299646376 1.2395238627296623 0 0 0
199 67 2 -1.1794 1.126926990241084 8.67996890783432 2.7147115630514973 0 0 0
221 74 1 0.5897 4.314480420767861 10.560214415611046 3.061856236824848 0 0 0
245 82 1 0.5897 0.8713710788843465 9.591975343545618 4.197620324680599 0 0 0
696 232 1 0.5897 4.275242622078955 11.02158957590454 0.2965902574473683 0 0 1
238 80 2 -1.1794 3.653601540387757 7.995993415558807 1.8690566230541585 0 0 0
174 58 1 0.5897 3.462315889399343 9.22736289511447 4.663851193910501 0 0 0
12 4 1 0.5897 1.2565523831838217 6.550883183637301 4.771173075126672 0 0 0
220 74 2 -1.1794 3.5848144427052 10.739010522394413 3.655142999715474 0 0 0
694 232 2 -1.1794 3.682981104611338 10.269837315504194 0.280337875436165 0 0 1
113 38 1 0.5897 -3.1492583853301017 5.954204171463288 3.463427752943224 1 0 0
201 67 1 0.5897 2.027012955135902 8.391296292352722 2.5634924394528635 0 0 0
187 63 2 -1.1794 0.9477069716072242 10.28213571778546 0.4956660433339668 0 0 0
239 80 1 0.5897 3.7736883447783374 8.790961527058174 1.3496913468312055 0 0 0
9 3 1 0.5897 -0.7055223317742239 5.853001620204274 4.442037566268057 0 0 0
331 111 2 -1.1794 -1.7726433614675543 8.765475935559923 0.24629036054816797 1 0 0
10 4 2 -1.1794 2.180960260385131 6.3432690908321625 4.634348998490779 0 0 0
82 28 2 -1.1794 2.4721463418231373 6.158700796195798 0.20838033305369305 0 0 0
189 63 1 0.5897 1.8840434928426166 10.444709955629106 0.38094305793103345 0 0 0
114 38 1 0.5897 -3.2168342833205736 5.703749438421321 1.9718292813605496 1 0 0
224 75 1 0.5897 -0.2800874341553139 11.275025867949667 3.952876681541368 0 0 0
222 74 1 0.5897 2.9786850164512746 11.268811252648154 3.1372872698292946 0 0 0
253 85 2 -1.1794 -2.2994136487640047 8.625776880905445 4.874735186594192 1 0 0
65 22 1 0.5897 2.439959692827225 7.512673447925523 8.745220225447794 0 0 0
172 58 2 -1.1794 3.6767260806199493 8.53589356943594 5.290014000993413 0 0 0
302 101 1 0.5897 -1.9949095212481334 9.946367698515846 6.147843707799756 1 0 0
64 22 2 -1.1794 2.1415228435579436 6.875377303442046 8.09633347111597 0 0 0
7 3 2 -1.1794 -0.5344095397748787 6.575224189961345 5.046495834995249 0 0 0
293 98 1 0.5897 -3.933531932874668 10.424500663592115 7.203126977418114 1 0 0
109 37 2 -1.1794 -4.0759394972990926 6.468611730694671 7.2682251320869895 1 0 0
66 22 1 0.5897 2.9321383861124977 6.638298905113779 7.611472179997181 0 0 0
111 37 1 0.5897 -4.990602478961236 6.719316435742709 7.3981917602825185 1 0 0
301 101 2 -1.1794 -2.254921389009689 10.70157303754067 6.675419959596328 1 0 0
294 98 1 0.5897 -4.8943575112315925 9.82680892020377 8.20888747198676 1 0 0
191 64 1 0.5897 0.5444240934153126 9.757971674769912 8.780374334829808 0 0 0
837 279 1 0.5897 -5.850660061718097 8.317218878989644 9.177852028211127 1 0 0
202 68 2 -1.1794 0.4423978538983553 8.812603063260099 7.2534039645640025 0 0 0
203 68 1 0.5897 -0.4234426118084138 8.471664205901453 7.477817092518113 0 0 0
204 68 1 0.5897 1.040345532388189 8.087426266330448 7.4345615033564485 0 0 0
303 101 1 0.5897 -1.4297859828005888 11.12778004916458 6.907296196306988 1 0 0
235 79 2 -1.1794 -1.946086479091714 7.884239040863417 8.160751486151206 0 0 0
236 79 1 0.5897 -2.7436271826573044 7.485926759586645 7.812107591196083 0 0 0
237 79 1 0.5897 -2.2563692447493144 8.619664583924138 8.689111071726261 0 0 0
292 98 2 -1.1794 -4.86191731144082 10.240238761857618 7.3461770202550625 1 0 0
246 82 1 0.5897 0.5611637560555716 9.612636087204168 5.679342544925817 0 0 0
8 3 1 0.5897 -0.505913449041226 6.1637533507067435 5.9102824063919845 0 0 0
110 37 1 0.5897 -4.056957874264707 6.07319920412641 6.396660359687376 1 0 0
588 196 1 0.5897 -1.2262717549185194 6.631998383330441 9.279553765371364 0 0 0
257 86 1 0.5897 -4.105510697983476 8.490212561867125 5.0134740787848235 1 0 0
173 58 1 0.5897 3.1524101047912705 7.7862399843182875 5.008402816981735 0 0 0
228 76 1 0.5897 1.8984082839714045 11.244932720372184 5.838541455742789 0 0 0
244 82 2 -1.1794 0.6855273703858269 10.187167932143367 4.923930524926295 0 0 0
254 85 1 0.5897 -1.6896488638780671 7.888045101513879 4.888712876044119 1 0 0
513 171 1 0.5897 -4.077553402338104 5.970364528782952 14.069588031981002 0 0 0
618 206 1 0.5897 -6.495395665448381 5.923970293460916 11.387650224094795 1 0 0
836 279 1 0.5897 -4.6285302778226995 8.27978188641899 10.070658135972723 1 0 0
750 250 1 0.5897 -3.0415867135993047 10.752063664934159 14.054123405228676 0 0 0
192 64 1 0.5897 0.9949211128098936 10.88565810611535 9.684422122626993 0 0 0
616 206 2 -1.1794 -6.349039843436332 6.584058139318425 12.065249533586462 1 0 0
795 265 1 0.5897 -5.661610609221163 9.72771115466558 11.19940033403757 1 0 0
793 265 2 -1.1794 -5.865979378501981 10.05370450082049 12.075936479303076 1 0 0
649 217 2 -1.1794 -3.834672449464317 6.975543709682794 10.998210122712216 1 0 0
650 217 1 0.5897 -3.213911236538322 7.45062368735443 11.550684884560518 1 0 0
651 217 1 0.5897 -4.62000822277162 6.8895854040597415 11.5387625503243 1 0 0
759 253 1 0.5897 -5.719018398488801 8.976543150583497 13.54011877980879 1 0 0
678 226 1 0.5897 0.3922251961705667 9.371104329298001 13.911608366895464 0 0 0
744 248 1 0.5897 0.13034671331682057 7.272167691028905 10.759211860821416 0 0 0
794 265 1 0.5897 -5.219222387799586 10.741634313712293 12.232955836206662 1 0 0
693 231 1 0.5897 -2.3584703030103906 9.646493986083222 10.745281027127835 0 0 0
703 235 2 -1.1794 -2.0597689328372617 8.61428016837445 12.243905872047455 0 0 0
704 235 1 0.5897 -1.1336407859483257 8.409052019660471 12.115366421058676 0 0 0
705 235 1 0.5897 -2.0839791755056947 9.113145821537103 13.060527383984908 0 0 0
724 242 2 -1.1794 0.6539011979702334 10.834962210825363 12.85207633921531 0 0 0
742 248 2 -1.1794 0.45408893563435315 7.923226473692474 11.381765246500581 0 0 0
743 248 1 0.5897 0.5969511770200362 8.709129847631777 10.854429020109922 0 0 0
691 231 2 -1.1794 -2.29834021103674 10.0224446099013 9.867043367742623 0 0 0
617 206 1 0.5897 -6.998973023383665 7.262850309183566 11.883355956720612 1 0 0
726 242 1 0.5897 -0.0862817758939709 11.266262634157075 12.424995204601444 0 0 0
514 172 2 -1.1794 -1.0414246472198725 6.380931342451379 14.272564982585713 0 0 0
835 279 2 -1.1794 -5.257456552592544 8.882035708740492 9.673174088423622 1 0 0
692 231 1 0.5897 -1.373193460987164 10.245790002481947 9.764438752668068 0 0 0
663 221 1 0.5897 -6.579472447788307 5.826997076254043 13.649433564349854 1 0 0
586 196 2 -1.1794 -0.5988362918606485 6.0469145310962045 9.704116217590041 0 0 0
190 64 2 -1.1794 0.4198697284230324 10.120970002665032 9.657338580628156 0 0 0
516 172 1 0.5897 -0.5076477282151091 7.171772508722306 14.348811061889378 0 0 0
512 171 1 0.5897 -4.453841629513628 7.338243209456159 14.597981117532385 0 0 0
333 111 1 0.5897 -8.1989701598754 9.521643101302093 18.505579824260643 1 0 -1
749 250 1 0.5897 -2.743417637279369 9.811747565233658 15.202482323646517 0 0 0
762 254 1 0.5897 -7.521720320558609 8.56717967367211 14.757987488414738 1 0 0
511 171 2 -1.1794 -3.775558090198036 6.665192192141414 14.654618814969467 0 0 0
796 266 2 -1.1794 -7.8360877368741635 10.389907774334777 17.023099446197094 1 0 0
568 190 2 -1.1794 -1.2171147008700318 7.379753849207758 17.791448070986206 0 0 0
569 190 1 0.5897 -1.4082308928587528 6.5992183077151605 18.31142541943524 0 0 0
570 190 1 0.5897 -0.4259119852917337 7.1543165913808595 17.302013210202503 0 0 0
613 205 2 -1.1794 -7.414934357756763 6.5748884487638675 16.73637267543549 1 0 0
83 28 1 0.5897 -4.708471096676899 6.942207053338793 18.770497511898 0 0 -1
805 269 2 -1.1794 -5.420021159438464 10.920338428107957 15.84884648537506 1 0 0
797 266 1 0.5897 -6.956445089743541 10.66079952025669 16.76014840566699 1 0 0
695 232 1 0.5897 -2.8551977525317813 10.058247893917532 18.34727467457671 0 0 0
758 253 1 0.5897 -5.523812952311092 9.335353434470525 14.997960478355099 1 0 0
706 236 2 -1.1794 -3.055467580687834 9.106440580680703 16.825091613898273 0 0 0
707 236 1 0.5897 -3.920194803770876 8.774775131497499 17.067012543767213 0 0 0
708 236 1 0.5897 -2.449460595577338 8.416570048269488 17.09541606802825 0 0 0
798 266 1 0.5897 -8.10763313330019 9.768285303907671 16.347732596792362 1 0 0
741 247 1 0.5897 -5.8061617841473865 8.955362265915838 18.266997217628827 0 0 0
739 247 2 -1.1794 -5.46939794023838 8.199917519495115 17.785151404830984 0 0 0
740 247 1 0.5897 -6.245350520092428 7.801369476233948 17.391026753380082 0 0 0
615 205 1 0.5897 -7.202991361429804 6.144303675405307 15.908106916802993 1 0 0
676 226 2 -1.1794 0.47034719450621676 8.676676688436363 14.56570260537199 0 0 0
748 250 2 -1.1794 -2.3410155864689832 10.225203762320373 14.438691460522623 0 0 0
757 253 2 -1.1794 -5.723612731670926 8.599129486074197 14.419774622257405 1 0 0
515 172 1 0.5897 -1.9389912416315864 6.682695263163607 14.412800143352197 0 0 0
614 205 1 0.5897 -7.312732767762693 5.889241652106963 17.396387188247886 1 0 0
280 94 2 -1.1794 -3.3586663784604687 13.911454608039106 2.704939862661823 1 0 0
281 94 1 0.5897 -3.3219004801486602 13.496365218615688 3.566679894792731 1 0 0
282 94 1 0.5897 -2.4575659821003972 14.183625771871846 2.5310493399200755 1 0 0
500 167 1 0.5897 -1.6997933811931174 15.868040610810299 0.6188144543799621 1 0 0
313 105 2 -1.1794 -0.8949451692928116 14.72060608458464 1.768477624577086 1 0 0
770 257 1 0.5897 -1.4298384192626723 12.36103833604836 0.2045447016711089 1 0 1
315 105 1 0.5897 -0.5636917213499992 13.991436327180404 1.244191413799122 1 0 0
223 75 2 -1.1794 -0.7430081939845596 11.894169403214539 3.388441249607277 0 0 0
225 75 1 0.5897 -0.8250916725016157 12.686964419563493 3.9185280072628563 0 0 0
314 105 1 0.5897 -0.1089821804982245 15.146910081726032 2.110233352673051 1 0 0
250 84 2 -1.1794 2.4665371422970086 13.858116564423977 0.2808214446276269 0 0 0
215 72 1 0.5897 1.9425702412401336 12.955596181030536 1.740247929867242 0 0 0
216 72 1 0.5897 0.913286396120689 12.3423291504386 2.665693817273609 0 0 0
367 123 2 -1.1794 1.1577620069736074 16.25272806533175 2.6854253174301963 0 0 0
423 141 1 0.5897 -2.3418819848989445 16.6218717993582 4.054362419941043 1 0 0
180 60 1 0.5897 2.0948790855934645 13.65923251246457 4.053913826436252 0 0 0
214 72 2 -1.1794 1.8394353090902644 12.578736579455336 2.6140880979482666 0 0 0
406 136 2 -1.1794 3.7268764270269106 15.56984086372021 1.9842375807094965 0 0 0
368 123 1 0.5897 2.0856702957956417 16.025679664331538 2.6238995157953102 0 0 0
408 136 1 0.5897 4.026754055697825 16.283457919527645 1.4212277272816645 0 0 0
252 84 1 0.5897 3.0032533742120426 14.474743184318005 0.7787690454375893 0 0 0
407 136 1 0.5897 4.530305151388876 15.130748075374786 2.2635282824412433 0 0 0
369 123 1 0.5897 1.0793947858308028 16.71886792781132 3.517836023669852 0 0 0
184 62 2 -1.1794 5.372998641563306 12.42293576791505 0.4021758158274149 0 0 0
499 167 2 -1.1794 -2.331600504859026 16.449556766002733 0.19583352742238008 1 0 0
771 257 1 0.5897 -0.04556347020271767 11.749020706886194 0.24156835805986243 1 0 1
269 90 1 0.5897 -3.4045012348849943 12.865803817477 1.1953996118615355 1 0 0
233 78 1 0.5897 2.7743475605564694 14.40913256812297 7.7246710649960555 0 0 0
690 230 1 0.5897 1.861602759801471 13.03632982481884 9.303078741339895 0 0 0
177 59 1 0.5897 0.2715141563428425 14.247943192125769 5.076298286250937 0 0 0
372 124 1 0.5897 0.26874389816991107 16.719627611508972 6.362756872327342 0 0 0
179 60 1 0.5897 2.2589539423083718 13.326213986546396 5.521641675935886 0 0 0
211 71 2 -1.1794 -0.264345171212625 12.434085012063168 7.409755272926228 0 0 0
212 71 1 0.5897 -0.4402339147127745 12.92646076323534 8.211608234744046 0 0 0
213 71 1 0.5897 -0.46148741687001893 13.04842936087251 6.702708054694714 0 0 0
226 76 2 -1.1794 2.2338735503722855 11.845767562281956 6.5039233687415035 0 0 0
227 76 1 0.5897 1.466025097210995 12.078830823650472 7.025901353982315 0 0 0
232 78 2 -1.1794 2.0016224975979995 14.521930163353703 8.278329141116982 0 0 0
279 93 1 0.5897 -5.135114741170287 14.165439702839489 7.555972424359731 1 0 0
234 78 1 0.5897 1.4202673182929768 15.085006996155647 7.767233783666286 0 0 0
1004 335 1 0.5897 -5.129979589191848 16.820394318680208 9.108584595791962 1 0 0
267 89 1 0.5897 -3.763451726633523 12.604035903706803 8.658334236071571 1 0 0
277 93 2 -1.1794 -4.266384241189719 13.844588207388817 7.313651227135928 1 0 0
278 93 1 0.5897 -3.671879486502011 14.554039045467082 7.557457661431425 1 0 0
756 252 1 0.5897 -1.5433454757591898 14.460041927402795 9.211062260215938 0 0 0
425 142 1 0.5897 -4.042302207913048 16.01846779638334 5.057003551111162 1 0 0
326 109 1 0.5897 -2.9698078292294476 11.891906280568547 5.508125425426362 1 0 0
327 109 1 0.5897 -3.898229288300292 13.063841466712486 5.746035063850405 1 0 0
340 114 2 -1.1794 3.670369909864938 16.34219497355254 5.220680261047692 0 0 0
403 135 2 -1.1794 -2.375432085646174 15.665137867734797 8.167443774549085 0 0 0
370 124 2 -1.1794 0.14475565792197598 16.25883151458216 7.19253262739479 0 0 0
404 135 1 0.5897 -1.5494387261408695 15.825953169067432 7.711159177387649 0 0 0
405 135 1 0.5897 -2.482350073850655 16.421583299545897 8.744182377159806 0 0 0
176 59 1 0.5897 -1.139481197623828 14.796584547949431 5.092244122902799 0 0 0
325 109 2 -1.1794 -3.5551510135709767 12.498170861615337 5.054188628189001 1 0 0
175 59 2 -1.1794 -0.6440387448643472 13.980040975605764 5.155597992667085 0 0 0
341 114 1 0.5897 3.1914392006905716 15.519190863717316 5.123500038756171 0 0 0
421 141 2 -1.1794 -2.2452412908944686 16.218380925340387 4.916978354712264 1 0 0
371 124 1 0.5897 0.2783088154606963 16.929780458666276 7.862059292073775 0 0 0
266 89 1 0.5897 -3.216841171775407 11.536748219107267 9.582413930898978 1 0 0
265 89 2 -1.1794 -3.7660325675424184 12.320670270309558 9.572651357268706 1 0 0
178 60 2 -1.1794 2.127223324577982 14.060770671695252 4.922276789806074 0 0 0
422 141 1 0.5897 -2.1669951268228624 16.9573849353373 5.520309316351432 1 0 0
462 154 1 0.5897 -4.91192792329835 16.96347491022289 6.763768579755317 1 0 0
774 258 1 0.5897 -5.577479827342943 12.102196018862827 9.613159275541246 1 0 0
688 230 2 -1.1794 2.0739873743378867 12.320269072495256 9.901681208416866 0 0 0
1003 335 2 -1.1794 -5.479455783661608 16.377358463899732 9.881777252878813 1 0 0
925 309 2 -1.1794 -5.707904103783972 16.06169230352167 14.210492155411941 1 0 0
718 240 2 -1.1794 -1.438482122743971 12.393686259008005 11.885628342110433 0 0 0
719 240 1 0.5897 -1.306565694919632 12.883446051212347 11.073865452696122 0 0 0
720 240 1 0.5897 -1.288409051691116 13.035115637430184 12.580126691862588 0 0 0
831 277 1 0.5897 -7.497966236694742 12.065295950342641 13.932242470478743 1 0 0
1005 335 1 0.5897 -4.7529377535145585 15.841557400908078 10.200159990406721 1 0 0
912 304 1 0.5897 1.1395388669299775 15.193222861006749 11.537431388685164 0 0 0
728 243 1 0.5897 -3.1380705878001125 11.97889639179282 12.374192607674884 0 0 0
729 243 1 0.5897 -4.060665562166525 12.62719885350441 13.384515658489727 0 0 0
755 252 1 0.5897 -0.2980387883643272 14.517663527017069 10.070130419303974 0 0 0
727 243 2 -1.1794 -3.931709635061138 11.820615593631418 12.88547087047646 0 0 0
873 291 1 0.5897 -2.5157668992335083 15.67299520389973 11.921501405183514 0 0 0
784 262 2 -1.1794 -6.291840255901699 13.924916000376829 11.911460718888808 1 0 0
911 304 1 0.5897 -0.19208225389766742 15.91007235461682 11.6085627882211 0 0 0
786 262 1 0.5897 -6.459005908999238 13.555693111718737 12.778633736974474 1 0 0
817 273 2 -1.1794 -3.7650100503747903 14.60780687168129 11.146988919961078 1 0 0
818 273 1 0.5897 -4.5901563711404485 14.435107812648006 11.60045093294541 1 0 0
819 273 1 0.5897 -3.6182609058809483 13.828763774490554 10.610499977873118 1 0 0
773 258 1 0.5897 -6.530223979488774 12.756596653573462 10.5910487608438 1 0 0
910 304 2 -1.1794 0.549780620781557 15.747124466802376 11.025934620467526 0 0 0
871 291 2 -1.1794 -1.9372553641652743 16.41067142711478 12.114747642810668 0 0 0
684 228 1 0.5897 -0.5854260452113635 14.771902071098385 14.263504168579992 0 0 0
785 262 1 0.5897 -6.96455835775573 14.59722664935598 11.80321776292289 1 0 0
682 228 2 -1.1794 -1.137000789233487 14.016062611242846 14.061872994389022 0 0 0
846 282 1 0.5897 0.377740782706951 16.907166969056405 14.081020328827993 0 0 0
754 252 2 -1.1794 -0.8993976669644272 13.903449840845715 9.649006327626786 0 0 0
829 277 2 -1.1794 -6.799369795819219 12.631132323717338 14.26092578977652 1 0 0
725 242 1 0.5897 0.9851719512626929 11.484666999398337 13.472078561422729 0 0 0
926 309 1 0.5897 -5.025508566778878 15.400365155410206 14.325614703851203 1 0 0
185 62 1 0.5897 -1.3515885549990987 13.274381243993469 18.745189658328634 0 0 -1
874 292 2 -1.1794 -3.3194259443958556 16.222255061102246 16.816509074180786 0 0 0
807 269 1 0.5897 -4.747715671789184 11.418784343460988 16.313408932594477 1 0 0
876 292 1 0.5897 -2.6104334998250494 15.600781458732685 16.981964720612652 0 0 0
907 303 2 -1.1794 -5.78361673443408 15.662496694002428 17.841034614179073 0 0 0
681 227 1 0.5897 -3.830872679586144 13.63613697871103 15.438428517050626 0 0 0
930 310 1 0.5897 -7.488776807154589 15.98439094615653 14.541891744164525 1 0 0
830 277 1 0.5897 -7.198625633616887 13.106885090088195 14.989354300770335 1 0 0
715 239 2 -1.1794 -3.585822057247465 12.616614261033833 16.929942232131012 0 0 0
716 239 1 0.5897 -3.658832974439008 13.03985866941183 17.785437365847883 0 0 0
717 239 1 0.5897 -2.646475669828476 12.47550148428497 16.81133725276967 0 0 0
730 244 2 -1.1794 -1.063864276184498 12.044143959705995 15.984208559719335 0 0 0
736 246 2 -1.1794 -1.1855852956764332 14.701948945403249 17.673099797364664 0 0 0
909 303 1 0.5897 -4.9990772860223505 15.835307396413118 17.32050364105465 0 0 0
683 228 1 0.5897 -0.9442992253490496 13.386349838777493 14.756512035158831 0 0 0
875 292 1 0.5897 -3.092061946096127 16.62848241983904 15.980127140679901 0 0 0
781 261 2 -1.1794 -7.511855571476682 13.868573043370128 16.626653728779438 1 0 0
782 261 1 0.5897 -7.32825399251373 13.34099846669225 17.403942110344573 1 0 0
783 261 1 0.5897 -8.388015247168624 14.222970220032364 16.778634760941237 1 0 0
737 246 1 0.5897 -0.8760401881358124 15.375862506324967 18.278308489936812 0 0 0
908 303 1 0.5897 -6.319017282002386 15.094655360149986 17.286812269190982 0 0 0
251 84 1 0.5897 -4.800506272016032 14.532937257524063 18.813916463014685 0 0 -1
844 282 2 -1.1794 0.5125259757433165 16.155617847986154 14.658226702417906 0 0 0
927 309 1 0.5897 -5.439362418066197 16.784760261067568 14.777326039346226 1 0 0
738 246 1 0.5897 -0.3998368829843386 14.42179296055799 17.203545067672167 0 0 0