LAMMPS data file via write_data, version 30 Jul 2021, timestep = 41000000

1920 atoms
2 atom types
1280 bonds
1 bond types
640 angles
1 angle types

0.022596791797340643 24.707404208192898 xlo xhi
0.0427407661861281 24.687260233792767 ylo yhi
0.045446829948412315 22.764553170060072 zlo zhi

Masses

1 1.008
2 15.999

Pair Coeffs # lj/cut/tip4p/long/omp

1 0 0
2 0.21084 3.1668

Bond Coeffs # harmonic/omp

1 450 0.9572

Angle Coeffs # harmonic/omp

1 55 104.52

Atoms # full

1 1 2 -1.1794 4.399863715039158 1.5201676556392507 4.268073800932987 0 0 0
2 1 1 0.5897 4.501124774399318 2.19009436718255 4.944235916535508 0 0 0
3 1 1 0.5897 5.2020422207067245 1.5797109121701691 3.7492400635932692 0 0 0
4 2 2 -1.1794 2.8815982686269446 1.4020650082806905 1.9558649209805201 0 0 0
5 2 1 0.5897 3.235884574424973 1.4769421701743946 2.84190837978397 0 0 0
6 2 1 0.5897 1.9396001797654996 1.534750634335921 2.062045242175791 0 0 0
10 4 2 -1.1794 3.198328682343995 4.447852002615121 3.6648702644407716 0 0 0
11 4 1 0.5897 2.8029825144404343 5.171491626850369 4.150991189874375 0 0 0
12 4 1 0.5897 2.8498501226079513 4.536002093827073 2.777744797764358 0 0 0
13 5 2 -1.1794 1.4563016089898997 2.8341667417901006 4.987271429570767 0 0 0
14 5 1 0.5897 2.190447392292515 3.1309125468128127 4.449492513086332 0 0 0
15 5 1 0.5897 1.516415369430087 1.8789812093967373 4.9694699866792345 0 0 0
22 8 2 -1.1794 1.7724505262215804 4.394435265188294 1.3811552335981498 0 0 0
24 8 1 0.5897 1.5402055578577296 5.1657009813030195 0.8639677194047474 0 0 0
23 8 1 0.5897 1.0715502599041598 4.319810133923854 2.0287571602178147 0 0 0
20 7 1 0.5897 3.782644488071433 3.00537069412638 1.0402743949280708 0 0 0
9 3 1 0.5897 5.031827518896025 4.596847875745665 3.6309843959143313 0 0 0
19 7 2 -1.1794 4.621428443311265 3.344711286422627 0.7279666384550896 0 0 0
21 7 1 0.5897 5.275191897253791 2.9086463100059423 1.274482680382447 0 0 0
27 9 1 0.5897 4.668527217384581 5.118604960065933 0.7145435972487184 0 0 0
28 10 2 -1.1794 1.5594168117339173 0.08519936500843177 4.883987275874331 0 0 0
16 6 2 -1.1794 0.16131045164322425 1.5529241524170145 2.1166177032770737 0 0 0
387 129 1 0.5897 4.005096779597198 0.25233370473256944 1.1862408484241347 0 1 0
7 3 2 -1.1794 5.958772828045366 4.6816735721956 3.407792805219661 0 0 0
25 9 2 -1.1794 4.657622262003606 6.067793802031431 0.5911361419605683 0 0 0
98 33 1 0.5897 0.4277604598802105 5.34886683942882 3.8061368368581983 1 0 0
99 33 1 0.5897 0.24959617353347155 3.859239269055942 4.009470611199807 1 0 0
47 16 1 0.5897 5.9066714512821505 0.8898155896805692 1.604733421457843 0 0 0
867 289 1 0.5897 4.544578486229497 0.3130106897574828 5.62682540475319 0 1 0
150 50 1 0.5897 1.5556775242441117 5.9510929835515745 5.71157753159152 0 0 0
8 3 1 0.5897 6.273951566745749 5.397540719119398 3.9595744049456902 0 0 0
55 19 2 -1.1794 10.66701010310056 6.097664642820587 0.7795191006067804 0 0 0
58 20 2 -1.1794 7.493720882251516 0.2773834652522722 5.170333156824275 0 0 0
46 16 2 -1.1794 6.231081905392381 1.6134898903876274 2.140752368887869 0 0 0
31 11 2 -1.1794 10.718291721234317 1.3770024209097256 4.329083307411524 0 0 0
32 11 1 0.5897 10.820477463522462 2.1334382200391624 4.906688178728478 0 0 0
34 12 2 -1.1794 8.938494823448657 1.5825068735500947 2.233046652411685 0 0 0
36 12 1 0.5897 9.356562109522441 2.259356161683038 1.7007381410331202 0 0 0
39 13 1 0.5897 11.21369014512281 4.782831743070558 3.7134393751719097 0 0 0
40 14 2 -1.1794 9.399102865434616 4.717525513087501 3.6639138006346736 0 0 0
41 14 1 0.5897 8.995921928884336 4.6837391806698925 2.796444266733526 0 0 0
42 14 1 0.5897 8.952378851662736 4.033676139668554 4.16296242825132 0 0 0
43 15 2 -1.1794 7.670789838646489 3.0416626260171458 4.875741546567036 0 0 0
45 15 1 0.5897 7.0709507254283395 3.555869923730791 4.335346672296284 0 0 0
48 16 1 0.5897 7.18416556927328 1.5372163660835891 2.095457953895685 0 0 0
49 17 2 -1.1794 10.725997337639427 3.3695454990732756 0.9158108120848903 0 0 0
52 18 2 -1.1794 7.794072400866761 4.889650773000284 1.3015548901141045 0 0 0
53 18 1 0.5897 7.744178941843197 4.164890828711897 0.678264056555484 0 0 0
54 18 1 0.5897 7.023479514747681 4.780426765170086 1.8587618781385615 0 0 0
35 12 1 0.5897 9.457204549343153 1.5550501406467352 3.0370319559353613 0 0 0
33 11 1 0.5897 10.618743401770526 0.6330669662541353 4.923147569585117 0 0 0
59 20 1 0.5897 7.602692527192657 1.2221779996571895 5.06173225448596 0 0 0
50 17 1 0.5897 11.402956478305757 2.931117553198718 1.4313188456508499 0 0 0
56 19 1 0.5897 10.760283890572868 5.152666030057081 0.9002776296927694 0 0 0
37 13 2 -1.1794 12.16710087176072 4.717492053546657 3.6588791520846318 0 0 0
78 26 1 0.5897 12.053748422261739 1.5352807855143948 2.9863144610646555 0 0 0
77 26 1 0.5897 12.076647831389511 0.9196354879197951 1.603453701379573 0 0 0
416 139 1 0.5897 9.953645931741208 0.14573716843227902 1.195308579440381 0 1 0
180 60 1 0.5897 8.220197106350469 6.0718938878692885 4.374936780491474 0 0 0
44 15 1 0.5897 7.692424939498583 3.5019477725127195 5.714721688104028 0 0 0
51 17 1 0.5897 10.775822669068205 2.9566611038924204 0.05368715330005358 0 0 0
496 166 2 -1.1794 0.12178574001316055 1.7568561897254251 7.777943684232432 0 0 0
629 210 1 0.5897 2.311386930193972 5.982886781194587 10.28505061242205 0 0 0
578 193 1 0.5897 0.3881572989951079 3.890507197316265 9.675628876874244 1 0 0
494 165 1 0.5897 1.5930001918597043 1.9311705834231518 10.54581586522061 0 0 0
504 168 1 0.5897 1.455468938288321 3.9603864257217576 6.513227894202403 0 0 0
501 167 1 0.5897 4.556213761021021 4.32359939519083 6.454233592228852 0 0 0
499 167 2 -1.1794 4.607638687308593 3.3752170411696643 6.334933160545342 0 0 0
483 161 1 0.5897 4.724803708402985 2.2666469980234614 10.65446100906127 0 0 0
492 164 1 0.5897 2.848269877047634 4.00064854788091 9.714197099497055 0 0 0
493 165 2 -1.1794 1.6165447251796121 2.88607104627999 10.483219525189314 0 0 0
491 164 1 0.5897 2.813695077328319 4.76079087176599 8.405435593156053 0 0 0
485 162 1 0.5897 3.286801314268479 1.7508873066314732 8.652994623857683 0 0 0
481 161 2 -1.1794 4.487497472343549 1.6595963167722942 9.95344869669834 0 0 0
482 161 1 0.5897 5.246578084826459 1.6578386654764723 9.370339840889438 0 0 0
502 168 2 -1.1794 1.5851866133319719 4.718764169174727 7.08270417914357 0 0 0
500 167 1 0.5897 3.8956757794497094 3.0268559301252163 6.871575955040454 0 0 0
490 164 2 -1.1794 3.283462016085327 4.707644710431187 9.23772034304684 0 0 0
503 168 1 0.5897 0.8940695012025266 4.645601588110882 7.740902005094417 0 0 0
498 166 1 0.5897 1.0777563312486849 1.7109566629599309 7.793803455766596 0 0 0
484 162 2 -1.1794 2.8558726200776507 1.7142057269821482 7.799088392793608 0 0 0
489 163 1 0.5897 5.072694419075791 4.657261752440021 9.110454622680335 0 0 0
486 162 1 0.5897 3.288270491553055 0.9922764858665665 7.34288938893742 0 0 0
527 176 1 0.5897 5.795875155030139 0.9064468223648331 7.453335627935524 0 0 0
528 176 1 0.5897 5.855284021120178 2.4179688081554103 7.391232515014986 0 0 0
487 163 2 -1.1794 6.0275394979856 4.718799082724229 9.137320315147372 0 0 0
505 169 2 -1.1794 4.699587417847059 6.096727021417379 6.4685028662787065 0 0 0
508 170 2 -1.1794 1.2726588775895396 0.0590176653883813 10.486235327490542 0 0 0
579 193 1 0.5897 0.2513697697968599 5.397954466455188 9.644354227856155 1 0 0
1347 449 1 0.5897 4.627024890963613 0.3401314190759808 11.31216827780813 0 1 0
495 165 1 0.5897 1.4367002732342107 3.189431983751239 11.37307048102939 0 0 0
513 171 1 0.5897 11.446024794832518 1.5628216775920136 9.371103537534676 0 0 0
534 178 1 0.5897 7.108205133633962 4.7482419686969415 7.6635390474515726 0 0 0
522 174 1 0.5897 9.04301744747496 4.691391832767206 8.569046138051487 0 0 0
532 178 2 -1.1794 7.884597618675452 4.7076772222968915 7.105155927054856 0 0 0
516 172 1 0.5897 9.35446896411098 1.093172448662619 7.361401084565458 0 0 0
523 175 2 -1.1794 7.510263734497737 3.020721641781335 10.655301217201226 0 0 0
1010 337 1 0.5897 10.731373942202259 2.7326857951567654 11.373127956877887 0 0 0
535 179 2 -1.1794 10.88052508838256 6.150026234354585 6.366249177225656 0 0 0
526 176 2 -1.1794 6.2638863492547685 1.6609549323068933 7.8110497473993705 0 0 0
896 299 1 0.5897 11.357188673463247 0.20208483244014425 6.973865235965673 0 1 0
519 173 1 0.5897 11.211416887697256 4.630612426653224 9.239366351517747 0 0 0
533 178 1 0.5897 7.753679931950084 5.403690624482434 6.4612002294695605 0 0 0
525 175 1 0.5897 7.630974247805893 2.0720030388817943 10.614425296868847 0 0 0
538 180 2 -1.1794 7.6790337218467535 0.25270365928743066 10.682850937574766 0 0 0
517 173 2 -1.1794 12.163679563954307 4.684965166316149 9.15886711614104 0 0 0
529 177 2 -1.1794 10.902749543534636 3.3381425317100266 6.343121805902306 0 0 0
512 171 1 0.5897 9.935377512428495 1.6414419971293694 9.431719275033311 0 0 0
511 171 2 -1.1794 10.711320168186749 1.548750829752411 9.98447985248939 0 0 0
659 220 1 0.5897 6.916760089295774 5.966282314280206 10.112111631139717 0 0 0
524 175 1 0.5897 8.274541550780878 3.379557653636616 10.204354118503156 0 0 0
521 174 1 0.5897 8.871987490259789 5.420327533051938 9.884821664448456 0 0 0
515 172 1 0.5897 8.127033713977893 1.8324133272637622 7.850139650528411 0 0 0
558 186 1 0.5897 12.11897905652332 2.2095106834915805 7.251106548453907 0 0 0
488 163 1 0.5897 6.3010356601509665 3.9741335194031144 9.672986651493943 0 0 0
531 177 1 0.5897 10.868328171462945 4.2925370420634685 6.408338280455304 0 0 0
514 172 2 -1.1794 9.078711300776229 1.9082181433459258 7.780850712405488 0 0 0
530 177 1 0.5897 10.136618081878535 3.036437685679089 6.831230199574774 0 0 0
520 174 2 -1.1794 9.401104186406014 4.748420545905405 9.454891352668247 0 0 0
1377 459 1 0.5897 10.682842380947813 0.31959694326092003 11.297848115898942 0 1 0
961 321 2 -1.1794 4.417172406018288 1.6845750817609064 15.612271204322084 0 0 0
962 321 1 0.5897 5.144343865849635 1.6337924476833159 14.991896977610436 0 0 0
963 321 1 0.5897 4.5607415544705745 0.9515059426974397 16.210818035969098 0 0 0
964 322 2 -1.1794 2.758350781211075 1.6195024432178013 13.309341570699434 0 0 0
965 322 1 0.5897 3.083776960594432 1.6300971789689345 14.209443009557186 0 0 0
966 322 1 0.5897 1.8060218508549188 1.5835334661472207 13.39885628875409 0 0 0
970 324 2 -1.1794 3.122707529910441 4.8181692027471215 14.839972169309963 0 0 0
971 324 1 0.5897 4.070096144980064 4.687449009177476 14.880055172078345 0 0 0
972 324 1 0.5897 2.7553200258883837 4.043142976243338 15.264984920599804 0 0 0
973 325 2 -1.1794 1.484855590707998 2.9528416536052475 16.337974926163895 0 0 0
975 325 1 0.5897 0.8119379184774302 3.455835309644803 15.879252245341654 0 0 0
982 328 2 -1.1794 1.328980196869684 4.517379579331982 12.764664629520999 0 0 0
983 328 1 0.5897 1.411005007867373 5.272650819290979 12.182341079145692 0 0 0
984 328 1 0.5897 2.018944203586797 4.640915072978949 13.41651395559865 0 0 0
980 327 1 0.5897 3.8429549095358935 2.8292175423637977 12.54026414457697 0 0 0
981 327 1 0.5897 5.352236408666149 2.8505725307118133 12.656559060253493 0 0 0
979 327 2 -1.1794 4.624417480994738 3.2449605974845848 12.175958769200102 0 0 0
990 330 1 0.5897 1.554995313824888 1.2137110092000833 16.23901883481446 0 0 0
986 329 1 0.5897 4.581008026347472 5.0789613566865555 12.10492298236787 0 0 0
1346 449 1 0.5897 3.847462335792973 0.29432626807983403 12.609091664141786 0 1 0
967 323 2 -1.1794 5.852884580752485 4.6878041434064075 14.944399349995244 0 0 0
1109 370 1 0.5897 0.784063362312266 5.9592573830081665 16.01833879812724 0 0 0
1110 370 1 0.5897 2.289292301004377 6.107275375848737 15.95281489609516 0 0 0
1008 336 1 0.5897 5.939521060330146 0.7929764056345514 13.06015002869832 0 0 0
988 330 2 -1.1794 1.414689266391313 0.2716337684126825 16.14357130679842 0 0 0
985 329 2 -1.1794 4.597103644849301 6.031542721277802 12.011977181231478 0 0 0
1460 487 1 0.5897 4.561257316477941 2.8221024651230975 16.941758797507752 0 0 0
1058 353 1 0.5897 0.1368967627598785 4.722043692495876 14.15258033147261 1 0 0
1006 336 2 -1.1794 6.3208842721440375 1.518972989978729 13.553866420893861 0 0 0
968 323 1 0.5897 6.249475005125591 5.436253181759906 15.390283216304963 0 0 0
969 323 1 0.5897 6.281438296345547 3.923813597067001 15.330321631587678 0 0 0
1017 339 1 0.5897 10.667396691414945 5.005790212751774 12.007076883961146 0 0 0
991 331 2 -1.1794 10.63498328850271 1.6101801333147359 15.713157434679397 0 0 0
992 331 1 0.5897 11.371433106974374 1.521188960582341 15.108225760390075 0 0 0
993 331 1 0.5897 10.682838689183281 0.8301275036035595 16.265874483608634 0 0 0
994 332 2 -1.1794 9.052566156765618 1.511935208135629 13.474104628685508 0 0 0
995 332 1 0.5897 9.554886235244387 2.185936426390327 13.016220419237412 0 0 0
998 333 1 0.5897 11.207288530195472 4.513182013505746 15.091565585226894 0 0 0
1000 334 2 -1.1794 9.409114618664331 4.557970327180394 14.896293406127805 0 0 0
1001 334 1 0.5897 8.977186504195963 3.8510509425773445 15.375841816311263 0 0 0
1002 334 1 0.5897 8.945550327894939 4.598718834728629 14.0598419564917 0 0 0
1003 335 2 -1.1794 7.588383260394165 2.9283019931438234 16.184373561075972 0 0 0
1004 335 1 0.5897 7.5641315223243435 1.9818308042846502 16.3254753527193 0 0 0
1007 336 1 0.5897 7.2655703242389285 1.372854966699146 13.504289214803777 0 0 0
1012 338 2 -1.1794 7.621826429784082 4.7578948831505965 12.848770968792534 0 0 0
1014 338 1 0.5897 7.651741711655136 3.9855685756635273 12.284073060471039 0 0 0
1011 337 1 0.5897 11.488008699578325 2.908445946082165 12.672527500003248 0 0 0
1009 337 2 -1.1794 10.686952284812198 3.1744666119047666 12.22111230496315 0 0 0
996 332 1 0.5897 9.399231405359185 1.5188776451310892 14.366277714772986 0 0 0
1013 338 1 0.5897 6.875177291999996 4.603288504239285 13.427420243457439 0 0 0
997 333 2 -1.1794 12.16280666431444 4.526846795940637 15.146681208015318 0 0 0
1139 380 1 0.5897 8.400587331189753 5.884555812834644 15.81303456997276 0 0 0
1038 346 1 0.5897 12.077519798962182 0.8981607567009033 13.020135828151906 0 0 0
1376 459 1 0.5897 10.099894594262707 0.1855072279583101 12.688533105748908 0 1 0
660 220 1 0.5897 7.456131446794542 5.884547160467026 11.524276397425911 0 0 0
1018 340 2 -1.1794 7.57095021987556 0.12109558150724666 16.295403231793813 0 0 0
1015 339 2 -1.1794 10.836636616490965 5.947865269932735 11.99448175020974 0 0 0
1490 497 1 0.5897 10.693630703759126 2.7103634333763527 17.064456791719806 0 0 0
1005 335 1 0.5897 7.618693712762939 3.3015913622169384 17.06525127838858 0 0 0
974 325 1 0.5897 1.6663152775097134 3.4603784345070556 17.12899188948724 0 0 0
1468 490 2 -1.1794 1.6335214058429197 0.172117178618836 21.781407304636488 0 0 0
1539 513 1 0.5897 0.25764469931876854 5.616524319030301 21.06432150860457 1 0 0
1456 486 2 -1.1794 0.24527736904452085 1.6911797963285853 19.14740350719113 0 0 0
1454 485 1 0.5897 2.226340693575894 3.4378469470271047 21.27251312647593 0 0 0
1464 488 1 0.5897 0.9914308147790178 4.737880719346649 19.13035052494176 0 0 0
1443 481 1 0.5897 4.841851533695149 2.2509282778096447 22.07529427354828 0 0 0
1450 484 2 -1.1794 3.3811967876668225 4.730421295164107 20.72100032271951 0 0 0
1469 490 1 0.5897 1.6749916619200818 1.127125716418784 21.831865773946284 0 0 0
1442 481 1 0.5897 4.190787600852389 1.7876878369103175 20.78946139679789 0 0 0
1453 485 2 -1.1794 1.5734905659948273 2.9434496458345825 21.768095041700775 0 0 0
1444 482 2 -1.1794 3.031806065784055 1.5774057372497294 19.288289529770616 0 0 0
1463 488 1 0.5897 1.5263099336085042 5.469610192984272 17.917767748022484 0 0 0
1452 484 1 0.5897 3.1170799403865144 4.785464459293068 19.80262710135984 0 0 0
1441 481 2 -1.1794 4.924907042428796 1.6032799981284092 21.375367238855127 0 0 0
1451 484 1 0.5897 4.337437966567186 4.696966167534056 20.694122070055755 0 0 0
1445 482 1 0.5897 2.0746341976492375 1.5743860589545084 19.295496252748215 0 0 0
1446 482 1 0.5897 3.2649566519525703 2.269159014161402 18.669118566855033 0 0 0
1461 487 1 0.5897 5.324622532723919 2.868317120000774 18.248267564077835 0 0 0
1459 487 2 -1.1794 4.600220073880875 3.2830268198934536 17.779762631457885 0 0 0
1462 488 2 -1.1794 1.6638379536750993 4.686680193165142 18.451040053256847 0 0 0
1466 489 1 0.5897 4.5492401508689015 5.028277371873225 17.721513990737527 0 0 0
1465 489 2 -1.1794 4.510837438580155 5.9847306550119 17.72704588437461 0 0 0
1488 496 1 0.5897 5.987423093033063 0.9806415238703101 18.505998779003804 0 0 0
1487 496 1 0.5897 6.104001112709441 1.5786338212243936 19.891877060397633 0 0 0
1538 513 1 0.5897 0.2575156958255722 4.103335762458042 21.01585886006044 1 0 0
1590 530 1 0.5897 2.2968113592381787 6.007978034128757 21.737607003158153 0 0 0
1447 483 2 -1.1794 6.056166089511977 4.65083857689034 20.531694292880204 0 0 0
386 129 1 0.5897 4.842637510070853 0.3347854183098974 22.646950698615846 0 1 -1
1455 485 1 0.5897 1.6238895614135183 3.300944259868559 22.654585632902148 0 0 0
1826 609 1 0.5897 3.9994441610525087 0.25187170618216825 18.364586645080387 0 1 0
1619 540 1 0.5897 7.797676734665735 6.089067622699485 22.67064701422141 0 0 0
1491 497 1 0.5897 10.072438978397141 2.7956423889527913 18.442377612671386 0 0 0
1473 491 1 0.5897 10.261785908164958 1.5761805647565255 20.83159847591879 0 0 0
1486 496 2 -1.1794 6.46100890396194 1.645254449701336 19.006264973244342 0 0 0
1493 498 1 0.5897 7.773074412581783 5.279517864516572 17.903125038444443 0 0 0
1472 491 1 0.5897 10.925565254766092 0.9202688146812474 22.023675900729124 0 0 0
1485 495 1 0.5897 7.817986143422798 2.075855680906412 22.099002780497237 0 0 0
1481 494 1 0.5897 10.578381260460462 4.682202876636345 20.558847514253685 0 0 0
1856 619 1 0.5897 11.437657916531057 0.16473653838173286 18.175793842771526 0 1 0
1496 499 1 0.5897 10.885586007849982 4.963700434441829 17.77934733979574 0 0 0
1474 492 2 -1.1794 9.189420123204211 1.5141334208628052 19.412740189087394 0 0 0
1498 500 2 -1.1794 7.883805383896066 0.2796430384872518 22.21688784882265 0 0 0
1477 493 2 -1.1794 12.293252942681384 4.768653269153456 20.60568076336414 0 0 0
1475 492 1 0.5897 8.239716628291529 1.5324970760406122 19.294576265747104 0 0 0
1448 483 1 0.5897 6.410640491138403 5.386068155330535 21.031749994642553 0 0 0
1518 506 1 0.5897 12.158435227040169 1.501462659580282 20.04260980307341 0 0 0
1492 498 2 -1.1794 7.901783755881394 4.527993440230519 18.48183744856818 0 0 0
1489 497 2 -1.1794 10.751481901878833 3.186741715452082 17.89267158692663 0 0 0
1480 494 2 -1.1794 9.628080649382976 4.591748098959154 20.629455332412654 0 0 0
1484 495 1 0.5897 8.477246021299626 3.3134198066852574 21.528186935996317 0 0 0
1476 492 1 0.5897 9.485711446595017 0.7888667349000897 18.862775002929887 0 0 0
1494 498 1 0.5897 7.208044122647424 4.607673807435152 19.136507533887652 0 0 0
1620 540 1 0.5897 8.544022714340345 5.913889976794673 21.365232448960555 0 0 0
1449 483 1 0.5897 6.466246559707419 3.8773480166736762 20.918764973370862 0 0 0
1483 495 2 -1.1794 7.717581461743838 3.0256247902423006 22.034465997821364 0 0 0
1495 499 2 -1.1794 10.891107843000656 5.904431698450838 17.956258203782816 0 0 0
1517 506 1 0.5897 12.033335728523179 2.1419473466618 18.676600982981 0 0 0
1471 491 2 -1.1794 10.996737558346403 1.6733429276688423 21.437094192049365 0 0 0
1482 494 1 0.5897 9.324478507932831 4.5345373508145785 19.72350325462203 0 0 0
148 50 2 -1.1794 1.6171541941881966 6.305076544394696 4.824377751822706 0 0 0
121 41 2 -1.1794 4.6105584020020585 7.735776142471701 4.268185681805521 0 0 0
122 41 1 0.5897 3.920757253126602 7.6626575570595215 3.608607044539515 0 0 0
123 41 1 0.5897 5.410438186399711 7.883433985568047 3.7635903752689 0 0 0
124 42 2 -1.1794 2.9591044751059377 7.683676493957719 1.9852984937263063 0 0 0
125 42 1 0.5897 3.3413044241402217 6.927453162694339 1.539966923584563 0 0 0
126 42 1 0.5897 3.468535923761781 8.430408253430855 1.6704228859301038 0 0 0
129 43 1 0.5897 5.172324970635743 10.767193039073673 3.490693504298128 0 0 0
130 44 2 -1.1794 3.3533886182591868 10.874439219649792 3.563284883124913 0 0 0
132 44 1 0.5897 2.9779680042162022 10.097079708566904 3.9768632203893284 0 0 0
133 45 2 -1.1794 1.6340042954671632 9.0458431983161 4.8292495913140545 0 0 0
135 45 1 0.5897 0.9462019592590846 9.488916104089888 4.332404621342787 0 0 0
137 46 1 0.5897 1.170691111806336 7.7694633039367265 2.1837595503493894 0 0 0
139 47 2 -1.1794 4.7539127173877995 9.54838026079245 0.8386254853894239 0 0 0
142 48 2 -1.1794 1.4719751328598791 10.810089539174237 1.519444800393207 0 0 0
143 48 1 0.5897 2.197412783504494 10.997803911867695 2.115033167163272 0 0 0
144 48 1 0.5897 1.4789338736623598 11.536673515015027 0.8963190095936133 0 0 0
149 50 1 0.5897 1.6009507703290116 7.254771741904395 4.943215560257853 0 0 0
131 44 1 0.5897 3.0210247231642096 11.606742167372 4.082449152208982 0 0 0
140 47 1 0.5897 4.747667325500475 10.502891208994818 0.7666606118056718 0 0 0
218 73 1 0.5897 0.12121946550417513 10.756838282693797 2.840291409561641 1 0 0
621 207 1 0.5897 4.593729443346854 8.911284304660395 5.648615839937603 0 0 0
127 43 2 -1.1794 6.1262240755184285 10.767064785336531 3.4112096457809797 0 0 0
145 49 2 -1.1794 4.610172046199235 12.272424355279144 0.7571655306988209 0 0 0
136 46 2 -1.1794 0.21423396985900972 7.80529700345566 2.195901502517067 0 0 0
507 169 1 0.5897 4.634597802538043 6.544925587285077 5.625226850221882 0 0 0
1574 525 1 0.5897 1.6826046477300904 9.608705775527207 0.05328651923055848 0 0 1
134 45 1 0.5897 1.6169557037532414 9.465502252210756 5.68937134021886 0 0 0
270 90 1 0.5897 0.8781528740540756 12.200909862821314 4.5773825717885 0 0 0
168 56 1 0.5897 6.026854566946682 8.421044961734426 1.6664837671265706 0 0 0
26 9 1 0.5897 5.375697582142618 6.388990796949394 1.1365087025813227 0 0 0
128 43 1 0.5897 6.41112042414782 11.51309509193124 3.9389781233447887 0 0 0
166 56 2 -1.1794 6.35207985398821 7.647764955867069 2.127503285716463 0 0 0
157 53 2 -1.1794 12.21337004113871 10.893849460465557 3.748973382552517 0 0 0
178 60 2 -1.1794 7.532720473185968 6.387261745718592 4.9615766525541085 0 0 0
151 51 2 -1.1794 11.118277931541707 7.745655606188569 4.206927301316575 0 0 0
152 51 1 0.5897 10.32629327593454 7.613426829257747 3.685870058547938 0 0 0
153 51 1 0.5897 11.02510132865773 7.140735325086777 4.942880998297751 0 0 0
154 52 2 -1.1794 9.133065088066541 7.861471456835146 2.2794212756956505 0 0 0
155 52 1 0.5897 9.550578566127392 8.655924338029154 1.9465441947172277 0 0 0
156 52 1 0.5897 9.480497674534938 7.159243642456372 1.7294876972860078 0 0 0
158 53 1 0.5897 11.266150535049661 10.859981326962858 3.615314097875329 0 0 0
160 54 2 -1.1794 9.451204984557968 10.911027390819063 3.578454343149094 0 0 0
161 54 1 0.5897 9.010908480922378 11.024155189629413 2.7361089390620394 0 0 0
162 54 1 0.5897 8.952555034800712 10.223156740836963 4.019414148469792 0 0 0
163 55 2 -1.1794 7.698007000762549 9.160488214175109 4.958912196784652 0 0 0
164 55 1 0.5897 7.006098999198856 9.530971353051413 4.410966369562736 0 0 0
167 56 1 0.5897 7.291404924544373 7.8039405003221205 2.2250718986146065 0 0 0
169 57 2 -1.1794 10.928058703997594 9.505600100119219 0.999353059042424 0 0 0
172 58 2 -1.1794 7.876417121298512 11.00267216695053 1.3510239528773555 0 0 0
173 58 1 0.5897 7.785678541677245 10.300224073756635 0.7071392431483907 0 0 0
174 58 1 0.5897 7.166644766837146 10.849624852126631 1.9747401071802282 0 0 0
179 60 1 0.5897 7.638884828453565 7.338584403828436 4.9661931039702845 0 0 0
171 57 1 0.5897 10.87379314257446 10.45524178243408 0.8919197593551969 0 0 0
300 100 1 0.5897 8.378868374098362 12.14097735214969 4.534568770828781 0 0 0
198 66 1 0.5897 12.21247052775837 7.62790778031983 2.8438271767088836 0 0 0
197 66 1 0.5897 12.201011141879665 8.409000225602401 1.5470488352228278 0 0 0
175 59 2 -1.1794 10.939491327447529 12.237875178196067 0.7345722637976941 0 0 0
57 19 1 0.5897 11.437442597407596 6.471482110394214 1.2072255530122238 0 0 0
650 217 1 0.5897 11.05682688010672 9.065807541049574 5.546044255227058 0 0 0
165 55 1 0.5897 7.752540108790019 9.752230979211022 5.70931479487927 0 0 0
170 57 1 0.5897 10.80082286058136 9.156598397581542 0.11718598982913875 0 0 0
616 206 2 -1.1794 0.2129492421380179 7.5834343529466315 7.698517898998036 0 0 0
506 169 1 0.5897 3.9998229489970822 6.4790656143221135 6.998013042812693 0 0 0
614 205 1 0.5897 2.3805750725243016 9.532056131825899 10.177735635299479 0 0 0
611 204 1 0.5897 4.244964634594434 10.835830690479307 9.315158944820977 0 0 0
698 233 1 0.5897 0.2804399552902908 11.410746811098008 9.772013779388425 1 0 0
604 202 2 -1.1794 2.88549822005977 7.719841218791599 7.890237749857092 0 0 0
613 205 2 -1.1794 1.711198685341398 9.145114699361372 10.74204973432417 0 0 0
699 233 1 0.5897 0.32327993008635214 10.612843766682907 8.486170769165335 1 0 0
603 201 1 0.5897 4.0470486746146435 7.729439588359058 9.240252137749845 0 0 0
620 207 1 0.5897 5.230387108068418 9.007242425078527 7.018752600044869 0 0 0
619 207 2 -1.1794 4.56462599884092 9.41286250455243 6.463352473510352 0 0 0
602 201 1 0.5897 4.625071715454974 6.9398563956824315 10.39538874693226 0 0 0
610 204 2 -1.1794 3.292925413025366 10.775944026324568 9.235950869790969 0 0 0
630 210 1 0.5897 1.6923377180092427 7.29792307272845 10.708714089440083 0 0 0
624 208 1 0.5897 1.62406105146289 11.326183272257774 6.565224047470076 0 0 0
622 208 2 -1.1794 1.5377866317954454 10.56402746071458 7.137885129530445 0 0 0
647 216 1 0.5897 6.005588899043793 7.823629036210711 8.692109845821891 0 0 0
601 201 2 -1.1794 4.723475861555437 7.762913622573025 9.91666976437745 0 0 0
626 209 1 0.5897 4.561208474688258 11.194702599460987 6.460365935129101 0 0 0
615 205 1 0.5897 0.8825831363245724 9.466542685733955 10.386634320317544 0 0 0
606 202 1 0.5897 1.9320253341477185 7.737039302925085 7.80758910611305 0 0 0
612 204 1 0.5897 2.965202991080968 11.554483187763791 9.686226777237437 0 0 0
623 208 1 0.5897 2.2923059591027086 10.617939558451505 7.724412867584821 0 0 0
648 216 1 0.5897 5.962370569837686 7.068648910361872 7.380620353798395 0 0 0
605 202 1 0.5897 3.184951950197937 8.46562972847431 7.370244800187785 0 0 0
607 203 2 -1.1794 6.058039073819338 10.715627646882094 9.22557761182853 0 0 0
628 210 2 -1.1794 1.554432683264375 6.3512093429240535 10.740677907253692 0 0 0
625 209 2 -1.1794 4.537774557353503 12.150343315398944 6.410265878999809 0 0 0
1101 367 1 0.5897 4.679233127671324 8.967887116135353 11.270079408880866 0 0 0
643 215 2 -1.1794 7.849440297669796 9.14518772604294 10.53508522901306 0 0 0
1130 377 1 0.5897 10.730637953961866 9.04150348604811 11.257851483848219 0 0 0
645 215 1 0.5897 7.787524191728522 8.205427085843427 10.70631543158351 0 0 0
637 213 2 -1.1794 12.193442057601148 10.749221219845595 9.368899657095845 0 0 0
299 100 1 0.5897 7.641638751256297 12.08638368748841 5.855679476947666 0 0 0
651 217 1 0.5897 10.163022100933908 9.025127029487892 6.767229802188386 0 0 0
636 212 1 0.5897 8.126245556996857 7.851332015355373 7.700203846774665 0 0 0
633 211 1 0.5897 10.687277314213773 6.996518207849156 10.514860301554362 0 0 0
657 219 1 0.5897 11.018626032374106 11.270363076826474 6.412084515894491 0 0 0
779 260 1 0.5897 8.404760647995223 12.09853157694915 10.28270183698712 0 0 0
649 217 2 -1.1794 10.931571870449977 9.466885295141696 6.406080592898456 0 0 0
653 218 1 0.5897 7.140675919778555 10.776273266247184 7.705364115627983 0 0 0
631 211 2 -1.1794 10.653697610057518 7.769039701966027 9.9506343895144 0 0 0
646 216 2 -1.1794 6.362542429753885 7.828186012145014 7.803986256113298 0 0 0
537 179 1 0.5897 10.08566424695701 6.5449618141199615 6.724669308363677 0 0 0
608 203 1 0.5897 6.476194411771104 11.506968334338223 9.564997241431923 0 0 0
635 212 1 0.5897 9.38459644436107 7.772266771743738 8.538162818561554 0 0 0
640 214 2 -1.1794 9.55737297762268 11.031622201853203 9.409791958806448 0 0 0
641 214 1 0.5897 10.505097520740787 10.93607793617173 9.50428929220534 0 0 0
658 220 2 -1.1794 7.50912242932704 6.405040092479038 10.722712670375502 0 0 0
632 211 1 0.5897 11.461662817981816 7.727852212187983 9.439048655895549 0 0 0
652 218 2 -1.1794 7.920803454124306 10.931026684859198 7.172749833609932 0 0 0
536 179 1 0.5897 11.59059645748553 6.524053273801359 6.887916574702303 0 0 0
654 218 1 0.5897 8.63058715692687 11.024297621736649 7.808144252854628 0 0 0
678 226 1 0.5897 12.284685479684624 8.467368465269962 7.437158159325364 0 0 0
634 212 2 -1.1794 9.075169054838339 7.745334417364179 7.632775891079373 0 0 0
642 214 1 0.5897 9.198556858364011 10.211137793198619 9.747932440299275 0 0 0
609 203 1 0.5897 6.516192683449865 9.996561238285357 9.660673969476525 0 0 0
655 219 2 -1.1794 10.934052341993846 12.223614013441217 6.433692522741999 0 0 0
644 215 1 0.5897 7.9364953019670015 9.541862803613409 11.401850635924323 0 0 0
1081 361 2 -1.1794 4.811062684186956 7.683025579418315 15.607960197086502 0 0 0
1082 361 1 0.5897 4.840208718482178 8.465297723951142 16.15884490297246 0 0 0
1083 361 1 0.5897 4.73808248721087 6.9563060559533945 16.226677141104986 0 0 0
1084 362 2 -1.1794 3.0127744260713123 7.728632256737552 13.464349489208049 0 0 0
1085 362 1 0.5897 3.488048475845344 7.675779417794775 14.293520775059422 0 0 0
1086 362 1 0.5897 3.4881386101647287 8.386402643217368 12.956781492311258 0 0 0
1089 363 1 0.5897 5.159985428465219 10.722944382331006 15.073924890979995 0 0 0
1090 364 2 -1.1794 3.3398033543729047 10.975899653999038 14.963797973748452 0 0 0
1091 364 1 0.5897 2.96315680349323 11.742114606046142 15.396609388274133 0 0 0
1092 364 1 0.5897 2.9227962130330254 10.228694414346498 15.392821344332244 0 0 0
1095 365 1 0.5897 1.0186528150643583 9.592666658737935 15.936584533223789 0 0 0
1097 366 1 0.5897 1.231479347146038 7.8528247180635615 13.40299067854748 0 0 0
1099 367 2 -1.1794 4.737155811995401 9.400695937807157 12.121863579989972 0 0 0
1102 368 2 -1.1794 1.7472786016491526 10.95829489840352 12.768442090463523 0 0 0
1104 368 1 0.5897 2.4668527746008855 10.899573572229183 13.396918315345497 0 0 0
1093 365 2 -1.1794 1.737379831331448 9.220570606118692 16.447671988533322 0 0 0
1103 368 1 0.5897 1.8578898109999264 10.192586814349275 12.20477364598139 0 0 0