LAMMPS data file via write_data, version 30 Jul 2021, timestep = 46500000

864 atoms
2 atom types
576 bonds
1 bond types
288 angles
1 angle types

0.19739176943540748 18.0101806305505 xlo xhi
0.1644988821413893 23.46467891787332 ylo yhi
0.14284178536115988 22.07035401463076 zlo zhi

Masses

1 1.00794
2 15.9994

Atoms # full

707 1 1 0.5897 3.0467299709845688 1.898699001009591 3.8712698179004246 0 0 0
706 1 2 -1.1794 3.100219405465742 1.8792756125752654 2.915733757955092 0 0 0
30 1 1 0.5897 5.350531087956054 3.9771532750187175 2.3255303069429494 0 0 0
708 1 1 0.5897 2.2923967118278687 2.3000566859524034 2.621533984741788 0 0 0
29 1 1 0.5897 4.597759218399871 2.6638064461682855 2.308748630804465 0 0 0
28 1 2 -1.1794 5.382553131783227 3.0908733005338553 1.965378146685566 0 0 0
3 1 1 0.5897 0.7971883014443751 3.9572157264935157 2.3786625220830144 0 0 0
137 1 1 0.5897 5.359463859646297 5.668396088877753 3.897050473457438 0 0 0
495 1 1 0.5897 8.249273496144564 2.2528749371247896 2.8495356610976166 0 0 0
494 1 1 0.5897 6.740650125242751 2.3015396303462206 2.733740649270026 0 0 0
493 1 2 -1.1794 7.45237490705396 1.8186459439054228 3.1538133472575076 0 0 0
1 1 2 -1.1794 0.7715760958580725 3.0413513596653408 2.101608434218931 0 0 0
846 1 1 0.5897 7.4558240344898845 1.9002699692285294 4.936959031657994 0 0 0
595 1 2 -1.1794 0.8787260158068131 5.660443269509167 2.9548632190884776 0 0 0
597 1 1 0.5897 0.89920855807967 5.714895506798086 3.9103251184852903 0 0 0
136 1 2 -1.1794 5.341574424128714 5.633879702322053 2.940612234031288 0 0 0
20 1 1 0.5897 0.5860685142366319 2.984791506993547 0.3153504717217487 0 0 0
668 1 1 0.5897 5.29109794763819 3.19451127484875 0.2324638021792254 0 0 0
819 1 1 0.5897 7.410190689446693 0.20458042346284086 2.3904770751061077 0 0 0
83 1 1 0.5897 4.480222991252084 2.656180634653955 6.37575417207174 0 0 0
183 1 1 0.5897 0.927773338511422 4.848115016730954 6.043484170917511 0 0 0
82 1 2 -1.1794 5.182878119994142 3.185233507655335 6.753349447808729 0 0 0
785 1 1 0.5897 0.8591854019643754 3.1517587363799575 7.698029943514516 0 0 0
674 1 1 0.5897 3.736777057176582 2.327793428049531 10.130932512443295 0 0 0
356 1 1 0.5897 7.408787047112237 1.086451016705187 10.05908947719197 0 0 0
676 1 2 -1.1794 5.208676754519674 5.762219734153478 10.434041837651062 0 0 0
845 1 1 0.5897 7.416041170253874 1.004396666240468 6.156712979945694 0 0 0
844 1 2 -1.1794 7.436121538818628 1.9245225148118739 5.893677175615085 0 0 0
673 1 2 -1.1794 2.991742541096533 1.8871507745585017 10.539533307841632 0 0 0
34 1 2 -1.1794 0.794509882682995 3.1339434562082173 9.437566951942074 0 0 0
274 1 2 -1.1794 5.12058576822883 3.154819454984226 9.462527571088868 0 0 0
678 1 1 0.5897 5.241128625822267 4.866926063061484 10.096963983357004 0 0 0
35 1 1 0.5897 0.7968486952469184 4.045013218664245 9.731116736215347 0 0 0
36 1 1 0.5897 1.5647414229827243 2.7460358380001972 9.852856174692809 0 0 0
355 1 2 -1.1794 7.440074379236303 2.0139627548498655 10.293535005344769 0 0 0
112 1 2 -1.1794 0.7277544993947993 5.739544931121122 10.196565466917741 0 0 0
84 1 1 0.5897 5.9880573499228245 2.7772652707879955 6.434861367998144 0 0 0
276 1 1 0.5897 5.934534816029226 2.7343355776946052 9.73977332496567 0 0 0
675 1 1 0.5897 2.9777896067817693 1.01794697050566 10.138885790614124 0 0 0
275 1 1 0.5897 5.1596738340069015 3.14624100057002 8.506136146481927 0 0 0
686 1 1 0.5897 5.371640809495952 4.776232415291686 6.024259058509844 0 0 0
784 1 2 -1.1794 0.8981391660326616 3.148110593413317 6.74160183441043 0 0 0
489 1 1 0.5897 2.980490876568096 0.9182651964501938 5.9647303661699835 0 0 0
488 1 1 0.5897 2.3188460310812284 2.2792310010323886 6.007556871149797 0 0 0
487 1 2 -1.1794 3.0680456387337163 1.8131616620738265 5.636514695222828 0 0 0
419 1 1 0.5897 9.004207463084882 2.5301387469964385 6.491442225190161 0 0 0
685 1 2 -1.1794 5.435609428982653 5.650854277692562 5.640626393094521 0 0 0
176 1 1 0.5897 9.029764059633955 2.751893962788525 9.784284822047866 0 0 0
181 1 2 -1.1794 0.9373021437560862 5.7322341905212495 5.676783627422583 0 0 0
166 1 2 -1.1794 2.9677390013450324 1.8782101998343201 13.268730652299755 0 0 0
167 1 1 0.5897 2.9851832167579757 1.8570850726417631 12.311892594642158 0 0 0
457 1 2 -1.1794 5.173797699975757 3.370123187786687 13.995240640626081 0 0 0
458 1 1 0.5897 5.9213717393304055 2.9279242602896023 13.593012250774537 0 0 0
459 1 1 0.5897 4.410325194781832 2.8889060058641345 13.676290132592149 0 0 0
762 1 1 0.5897 5.353863231358553 5.070824461963588 13.456302573697151 0 0 0
594 1 1 0.5897 8.220215928336136 2.4923788975470615 13.330733559805092 0 0 0
168 1 1 0.5897 2.2081379166193096 2.419756942513987 13.483016771995963 0 0 0
468 1 1 0.5897 0.7109465861139392 3.3284770672760726 14.895244724993042 0 0 0
466 1 2 -1.1794 0.7873387805009008 3.379229826768844 13.942420638026087 0 0 0
593 1 1 0.5897 7.409900590896919 1.2143914625278527 13.37496906505671 0 0 0
592 1 2 -1.1794 7.4058136156871885 2.101180120967663 13.014668063116485 0 0 0
365 1 1 0.5897 0.7891939587249734 5.039248837263077 13.308598361703254 0 0 0
71 1 1 0.5897 5.27312494858844 3.3014133466514024 15.783304498136253 0 0 0
761 1 1 0.5897 5.281750810143354 5.959581828570177 12.232831870217908 0 0 0
364 1 2 -1.1794 0.7891385582116812 5.923609519208741 12.942357125143685 0 0 0
357 1 1 0.5897 7.40790006809879 2.020917845295373 11.250197292252968 0 0 0
113 1 1 0.5897 0.7718678911273659 5.8174000010476234 11.149602760322567 0 0 0
760 1 2 -1.1794 5.368384899693303 5.9888524963769525 13.185681592886667 0 0 0
737 1 1 0.5897 2.8538151296358634 0.2586046588629882 13.95252079317691 0 1 0
754 1 2 -1.1794 7.652470495735202 1.9109527174446164 17.577897487773683 0 0 0
21 1 1 0.5897 0.6686713903804078 3.8723464928318556 21.019182012456533 0 0 0
277 1 2 -1.1794 5.268973991127859 5.781688145435247 17.672164970421246 0 0 0
755 1 1 0.5897 7.642765582515744 1.952067920569868 18.534193993430648 0 0 0
290 1 1 0.5897 2.984208705927855 1.2718747314934518 17.391098830519056 0 0 0
42 1 1 0.5897 7.513140508377571 1.0662362427927345 20.630059329963103 0 0 0
289 1 2 -1.1794 2.9998008027749465 2.174665483360967 17.708827308368456 0 0 0
41 1 1 0.5897 6.749551557090451 2.3734229418085713 20.63422457561203 0 0 0
143 1 1 0.5897 5.261788638575709 4.919654452486598 20.670523220326984 0 0 0
569 1 1 0.5897 2.181992822000703 2.2303569306413666 20.771801112517064 0 0 0
291 1 1 0.5897 2.1796865253684365 2.554278059465659 17.39340736170807 0 0 0
570 1 1 0.5897 2.970363775397042 1.9727142772685449 19.505296124742454 0 0 0
40 1 2 -1.1794 7.549784446508615 1.9653206485806576 20.30366987978776 0 0 0
571 1 2 -1.1794 0.7343716004515534 5.776643884332169 17.886198604245916 0 0 0
667 1 2 -1.1794 5.267904027384151 3.2055884530960412 21.203092405262893 0 0 0
134 1 1 0.5897 0.6344470570631344 4.206721641824681 17.066559971275193 0 0 0
568 1 2 -1.1794 3.000694156692286 1.849604166673683 20.45408966620589 0 0 0
756 1 1 0.5897 6.838785552628858 2.3385966719216826 17.311023867823753 0 0 0
669 1 1 0.5897 4.4243759584640445 2.812667198693614 20.978914639296516 0 0 0
278 1 1 0.5897 5.270758285347835 4.885366896985889 17.336257066942835 0 0 0
19 1 2 -1.1794 0.5982223852486442 2.9558378871238027 21.286149117084694 0 0 0
646 1 2 -1.1794 0.8918368596922159 5.581716907409342 20.59152744690192 0 0 0
72 1 1 0.5897 4.56988374545541 2.8686912988191184 17.0522247418799 0 0 0
323 1 1 0.5897 7.399217782867937 0.2275722737058759 17.07384297217853 0 1 0
70 1 2 -1.1794 5.373754182980702 3.280206240091888 16.734993306393047 0 0 0
648 1 1 0.5897 0.8647874737145024 5.66365811813486 19.638196995246286 0 0 0
133 1 2 -1.1794 0.7126112214738692 3.316946478680678 16.72244461733244 0 0 0
142 1 2 -1.1794 5.262320535851629 5.838025222185801 20.40067769182731 0 0 0
144 1 1 0.5897 5.314482658438005 5.807444777632952 19.445361097734484 0 0 0
599 1 1 0.5897 9.096463060840769 2.8361707706400536 17.04749715120012 0 0 0
360 1 1 0.5897 8.950869974978572 2.845229060216781 21.02320463906806 0 0 0
253 1 2 -1.1794 3.124472712243059 7.018498647848495 2.191685822751387 0 0 0
123 1 1 0.5897 3.072921128991979 8.736457172235504 2.685537133600277 0 0 0
121 1 2 -1.1794 3.0873938441164186 9.656343067995474 2.949775722649554 0 0 0
122 1 1 0.5897 3.055485447213454 9.631860606418124 3.9061597602767257 0 0 0
44 1 1 0.5897 1.5274476748452026 10.434175776919313 2.569470355085933 0 0 0
218 1 1 0.5897 6.022573882899914 10.668149486815322 2.4087527966880797 0 0 0
255 1 1 0.5897 2.3420740022617017 6.534010916384506 2.454955030894796 0 0 0
219 1 1 0.5897 4.511417953046701 10.58105215099398 2.3855107987202633 0 0 0
43 1 2 -1.1794 0.7144870425237276 10.816857175780596 2.239565126646759 0 0 0
415 1 2 -1.1794 7.460971144696454 7.1999463200747815 2.1430072733803236 0 0 0
417 1 1 0.5897 8.203929373549018 6.715351974407715 2.5026940495814114 0 0 0
254 1 1 0.5897 3.1084512913138482 6.998577982510632 1.2347991156403078 0 0 0
217 1 2 -1.1794 5.243406553464178 11.117976988443212 2.0820391602802966 0 0 0
66 1 1 0.5897 7.418123498001653 9.756821568721202 3.9679768267201294 0 0 0
65 1 1 0.5897 7.497496274144902 8.91450694322577 2.712513400020543 0 0 0
64 1 2 -1.1794 7.477951921749787 9.822481409568269 3.0148780573392653 0 0 0
416 1 1 0.5897 6.691114177082564 6.719256125112254 2.4470567521942277 0 0 0
396 1 1 0.5897 0.7389909976802017 10.87004661369048 0.45035169288241056 0 0 0
162 1 1 0.5897 7.431426761215248 7.07435988033933 0.3541012646288488 0 0 1
138 1 1 0.5897 4.559648948619256 6.129368981764198 2.697164091317776 0 0 0
773 1 1 0.5897 8.983568997517263 10.620056654599852 2.415656315205288 0 0 0
363 1 1 0.5897 5.18700993281702 10.915820141108437 0.3310386171749359 0 0 1
45 1 1 0.5897 0.7564801431549625 11.735454233667044 2.5053472534315895 0 0 0
256 1 2 -1.1794 2.9981814210741144 9.597576060016872 10.425593310255625 0 0 0
12 1 1 0.5897 3.183334085182121 7.898666051303888 6.333426734473102 0 0 0
10 1 2 -1.1794 3.259663932342225 6.976905476706554 6.579906803221305 0 0 0
794 1 1 0.5897 2.2513740142340413 9.996973576472834 6.10262559749945 0 0 0
526 1 2 -1.1794 7.3596578740716145 7.036349834967141 9.31267938131984 0 0 0
577 1 2 -1.1794 5.122661917053338 10.918343598236353 6.745783160494357 0 0 0
145 1 2 -1.1794 7.658721498111297 7.0099862751438895 6.610173935175096 0 0 0
551 1 1 0.5897 0.776094350527452 10.831622681257734 7.667088404541003 0 0 0
713 1 1 0.5897 8.095267695027944 10.070060415456652 6.074332379532173 0 0 0
580 1 2 -1.1794 5.158673958190836 10.986086875335422 9.500252693574076 0 0 0
650 1 1 0.5897 3.1225930809485307 7.014190308683358 8.403333372117896 0 0 0
822 1 1 0.5897 8.255676861855788 10.079093303723145 9.91977362552125 0 0 0
527 1 1 0.5897 7.402266341829089 7.9486127509465625 9.599356097910372 0 0 0
15 1 1 0.5897 1.5723162210083117 10.451302099425165 9.858332270346208 0 0 0
582 1 1 0.5897 5.217024952707912 10.973331960986537 8.544889691027956 0 0 0
820 1 2 -1.1794 7.480878699974353 9.622461526753725 10.247437628668395 0 0 0
581 1 1 0.5897 5.9187721252761545 10.483853324888525 9.793851789075966 0 0 0
147 1 1 0.5897 7.524162513982666 7.007638077323807 7.557893224949093 0 0 0
649 1 2 -1.1794 3.026074755907426 7.071605910535075 9.353950046099623 0 0 0
528 1 1 0.5897 8.176550376841412 6.647995572187071 9.625813474539891 0 0 0
13 1 2 -1.1794 0.8150300954217727 10.888089298837068 9.468553401689567 0 0 0
258 1 1 0.5897 3.7435001432071804 10.100518899596672 10.097351343504425 0 0 0
714 1 1 0.5897 7.459992810288442 8.69629404359837 6.042325459150029 0 0 0
257 1 1 0.5897 3.091990375255821 8.736264725324475 10.018685040671214 0 0 0
146 1 1 0.5897 6.884230382231624 6.57247540624544 6.256708190921552 0 0 0
578 1 1 0.5897 5.933659869137876 10.538963891520531 6.407343575393745 0 0 0
550 1 2 -1.1794 0.767186165659155 10.739853019595843 6.7143111454486855 0 0 0
687 1 1 0.5897 4.683011144060694 6.124112726734778 5.9953291528078285 0 0 0
651 1 1 0.5897 3.7815723811005917 6.5972819355027195 9.700981485681863 0 0 0
11 1 1 0.5897 2.457160709190889 6.572959848756563 6.249751710849663 0 0 0
795 1 1 0.5897 3.762773934808802 10.053622191077677 6.037871817527538 0 0 0
677 1 1 0.5897 5.957270728670311 6.198906250281983 10.027708388197256 0 0 0
165 1 1 0.5897 9.022180787629704 6.02702276749879 6.039386004517027 0 0 0
114 1 1 0.5897 1.5141901620514038 6.18582207497934 9.882649886917234 0 0 0
793 1 2 -1.1794 3.007874141673198 9.57521108181867 5.695168890587774 0 0 0
712 1 2 -1.1794 7.314631496933453 9.603891497260713 5.775197159544093 0 0 0
552 1 1 0.5897 0.8156087697565815 11.637771605798896 6.38625158438393 0 0 0
14 1 1 0.5897 0.8835646802515619 11.796097756625068 9.763591576928274 0 0 0
579 1 1 0.5897 5.113066697681116 11.811129703121855 6.400719550151452 0 0 0
826 1 2 -1.1794 7.622224730374094 7.3150043926977295 13.981125458816622 0 0 0
827 1 1 0.5897 6.8116678840424605 6.8885968776428115 13.702994978476669 0 0 0
332 1 1 0.5897 3.041345958817271 7.959878418652803 13.780341942054559 0 0 0
797 1 1 0.5897 3.0481776648807055 9.582831091588302 12.256175095227512 0 0 0
796 1 2 -1.1794 3.09687304587256 9.616782360596195 13.211561439417085 0 0 0
798 1 1 0.5897 2.3314924609732053 10.128751774690523 13.472839083629642 0 0 0
722 1 1 0.5897 4.534239839782306 10.496803240260219 13.654948921830519 0 0 0
261 1 1 0.5897 0.8711169114511959 11.017701615642558 14.962733881032888 0 0 0
723 1 1 0.5897 5.399931734764469 10.867208878646078 14.840402819016072 0 0 0
828 1 1 0.5897 7.628730352714495 7.220121619066751 14.933617027203141 0 0 0
259 1 2 -1.1794 0.9007700584208217 11.058528268675797 14.006835536998748 0 0 0
331 1 2 -1.1794 2.9778162159071457 7.040422923758042 14.03877700626462 0 0 0
225 1 1 0.5897 2.9062796376342126 6.95695204813985 15.837954280788946 0 0 0
721 1 2 -1.1794 5.341120297523353 10.95540745489216 13.889062413601764 0 0 0
475 1 2 -1.1794 7.660521269045343 9.846013218260252 12.95276817507386 0 0 0
476 1 1 0.5897 6.860058560604379 10.230046647821915 13.310494036804082 0 0 0
477 1 1 0.5897 7.6698393322254965 8.951085674129642 13.29224645463242 0 0 0
333 1 1 0.5897 3.778090019520522 6.639857973111585 13.699222991794317 0 0 0
366 1 1 0.5897 1.568603559034769 6.337061564242269 13.313412715027559 0 0 0
821 1 1 0.5897 7.530762456971883 9.71726620992946 11.19865176479625 0 0 0
851 1 1 0.5897 9.020036488998947 6.362361317240024 13.376245932694646 0 0 0
287 1 1 0.5897 9.024451830504505 10.500938118416943 21.09292934748346 0 0 0
141 1 1 0.5897 7.488940022522507 8.81533359977398 20.827650667363653 0 0 0
361 1 2 -1.1794 5.16825586231186 10.839190764683325 21.304579161999808 0 0 0
9 1 1 0.5897 6.758075221622262 9.96132556909648 17.425796208589837 0 0 0
4 1 2 -1.1794 3.034328693476699 7.047908913091002 21.368799516618093 0 0 0
627 1 1 0.5897 2.3138706383965606 10.023214088881035 17.32649812407846 0 0 0
394 1 2 -1.1794 0.7676799633389234 10.943365792045403 21.423878927322487 0 0 0
445 1 2 -1.1794 0.9089718125628876 10.88384453476583 16.752396971048114 0 0 0
140 1 1 0.5897 6.6773570552555555 10.093109096365806 20.806699436416867 0 0 0
161 1 1 0.5897 6.766226374452052 6.640923645843664 20.99258423158444 0 0 0
690 1 1 0.5897 2.1955227910925883 10.101652517812132 20.752378565086694 0 0 0
625 1 2 -1.1794 3.0943992533643785 9.559307706470776 17.629406024018174 0 0 0
688 1 2 -1.1794 2.922697174456695 9.59956570367824 20.38451923091108 0 0 0
647 1 1 0.5897 1.6682242554108577 6.076721974126418 20.853021356234617 0 0 0
224 1 1 0.5897 3.0300754277848996 7.851148613977653 17.053295990572206 0 0 0
689 1 1 0.5897 3.7074214057192334 10.051887478171341 20.694034293493683 0 0 0
572 1 1 0.5897 1.5202218315611027 6.1816111240605 17.519278423739603 0 0 0
626 1 1 0.5897 3.0156240882936065 9.554443234367675 18.583375907208243 0 0 0
139 1 2 -1.1794 7.494510291855364 9.710113013569503 20.487704035151157 0 0 0
6 1 1 0.5897 2.99259509386496 7.942257709548661 21.030232425195404 0 0 0
521 1 1 0.5897 6.743297640769677 6.60649170009192 17.09470040528376 0 0 0
8 1 1 0.5897 7.472061275960066 9.625139424205189 18.717753961246533 0 0 0
7 1 2 -1.1794 7.535361871472638 9.520155581575002 17.76840813217297 0 0 0
160 1 2 -1.1794 7.541569624218045 7.088816691436057 21.330852259269893 0 0 0
5 1 1 0.5897 3.8440153761110007 6.69077324993755 21.004040596832624 0 0 0
522 1 1 0.5897 7.546584358505402 7.8887792603155935 17.14254756998841 0 0 0
279 1 1 0.5897 4.445054608188935 6.1540518822093855 17.358020725622296 0 0 0
680 1 1 0.5897 4.606572480841277 10.337435313708749 16.976291324783244 0 0 0
223 1 2 -1.1794 2.939534185230374 6.934109434441189 16.794332138460206 0 0 0
462 1 1 0.5897 9.067154131400825 6.309538979064609 20.87767477171254 0 0 0
679 1 2 -1.1794 5.386845472973368 10.777660601367806 16.63929921557544 0 0 0
520 1 2 -1.1794 7.5352158055566 7.016980304662289 16.747493765982064 0 0 0
246 1 1 0.5897 8.941627144568274 10.373048202981028 17.119058905722593 0 0 0
446 1 1 0.5897 0.9195451588476724 11.791344005183756 17.056628575952562 0 0 0
711 1 1 0.5897 8.935825359044383 6.220241575498936 17.484734470887282 0 0 0
362 1 1 0.5897 5.250817054974785 11.739379359592446 20.989828542124332 0 0 0
681 1 1 0.5897 5.333588642725802 11.665202675602183 16.993783009633113 0 0 0
200 1 1 0.5897 5.2149266595531225 13.559968980447499 4.855521713743212 0 0 0
173 1 1 0.5897 4.4949869130877556 14.096440338537274 2.724948890827752 0 0 0
172 1 2 -1.1794 5.2827225906569755 13.68047211327006 3.0751379476083773 0 0 0
374 1 1 0.5897 0.8458626333072645 13.505199530559423 3.9989173449198714 0 0 0
558 1 1 0.5897 2.971440627246556 14.766905156058964 1.1540029245738403 0 0 0
556 1 2 -1.1794 2.9692831081961795 14.850596569999048 2.107563266607762 0 0 0
557 1 1 0.5897 2.201527512821744 14.353824331689925 2.390343387481261 0 0 0
478 1 2 -1.1794 7.446947465801989 14.950165690119293 2.030614049517099 0 0 0
174 1 1 0.5897 5.244441687594801 12.78131483712888 2.7491387734878483 0 0 0
293 1 1 0.5897 3.029179609961493 16.595473435391646 2.6207341243141276 0 0 0
479 1 1 0.5897 8.195767943165741 14.482645273650338 2.4005983875973578 0 0 0
449 1 1 0.5897 7.409620579558537 16.613978028541013 2.701775819321922 0 0 0
480 1 1 0.5897 6.682170172353345 14.510004772072387 2.4015145814248013 0 0 0
373 1 2 -1.1794 0.8604259497123944 13.455422114207746 3.0430945299654892 0 0 0
308 1 1 0.5897 7.361976111386723 17.418503667853557 4.884906412160309 0 0 0
317 1 1 0.5897 7.522264414174077 14.789704084332035 0.27205080657607816 0 0 0
448 1 2 -1.1794 7.428715746157475 17.495035153701657 3.075407304600425 0 0 0
294 1 1 0.5897 3.0763832773279507 17.47491276175662 3.852128835588844 0 0 0
292 1 2 -1.1794 3.05699645813186 17.51186956328729 2.8958102089022493 0 0 0
238 1 2 -1.1794 3.0052301474741707 17.43838322919659 5.619366713155938 0 0 0
384 1 1 0.5897 3.103575819434655 16.601832323088693 10.268051442242921 0 0 0
656 1 1 0.5897 1.615526542503625 13.861035474221461 6.155573264343047 0 0 0
454 1 2 -1.1794 5.268898263831674 13.614770723142819 10.38337922950943 0 0 0
382 1 2 -1.1794 3.0810882270582547 17.48136259112622 10.645076857540085 0 0 0
811 1 2 -1.1794 3.0892238103106693 15.001371593839213 9.446121442754778 0 0 0
456 1 1 0.5897 5.227057493078052 12.700052456180552 10.104518848626855 0 0 0
813 1 1 0.5897 2.3599925227507628 14.470089688009288 9.765741311856482 0 0 0
17 1 1 0.5897 3.124018572824703 14.977362606356438 7.612976500557289 0 0 0
766 1 2 -1.1794 0.9695576947210206 13.552994128546553 10.316676414464213 0 0 0
239 1 1 0.5897 3.0254026438265766 16.538788458347348 5.945782076867749 0 0 0
377 1 1 0.5897 6.7284506131753545 14.459831839154058 9.836457113153589 0 0 0
59 1 1 0.5897 8.99054906732931 14.0758542255144 10.000249690490945 0 0 0
519 1 1 0.5897 8.30804349032054 14.376476000560235 6.400130640516369 0 0 0
812 1 1 0.5897 3.872189213494007 14.523424909316013 9.71946802174693 0 0 0
18 1 1 0.5897 3.843970722462428 14.418511632692125 6.404132628137737 0 0 0
376 1 2 -1.1794 7.487710272830665 14.949247966591395 9.519931812325 0 0 0
16 1 2 -1.1794 3.066745541853217 14.915414338107137 6.6594718998251645 0 0 0
517 1 2 -1.1794 7.495073217960235 14.729829285993604 6.761250981566479 0 0 0
186 1 1 0.5897 7.538748638992432 16.683072734503853 9.998420342893555 0 0 0
378 1 1 0.5897 7.470076925410146 14.831723040432808 8.570109832435708 0 0 0
518 1 1 0.5897 7.4300161117060135 15.60967316089321 6.3899430527521766 0 0 0
201 1 1 0.5897 6.021975431248727 13.885194842595148 6.0944060698663565 0 0 0
307 1 2 -1.1794 7.334415353205614 17.31757439240596 5.836399468441974 0 0 0
199 1 2 -1.1794 5.1967379298928345 13.492279716061859 5.810180407571784 0 0 0
184 1 2 -1.1794 7.499821648156082 17.578300408260738 10.334988407905382 0 0 0
655 1 2 -1.1794 0.8723500364645923 13.353036170588565 5.830276163038859 0 0 0
296 1 1 0.5897 7.353752999925062 14.918083134942602 14.824860414865555 0 0 0
232 1 2 -1.1794 2.890989005633838 14.953948460605728 14.071740379015722 0 0 0
234 1 1 0.5897 2.9840925242692435 14.926372439996543 15.024030428961812 0 0 0
606 1 1 0.5897 3.0419125074163094 16.617734614411077 13.5814328266488 0 0 0
427 1 2 -1.1794 5.039127991490276 13.636724653751267 13.127506079306205 0 0 0
233 1 1 0.5897 3.6807460253055733 14.526153359272783 13.740889034732861 0 0 0
639 1 1 0.5897 1.4538440322870145 14.08862284548515 13.3848897087674 0 0 0
429 1 1 0.5897 5.834884854186 14.087716576540632 13.409572575093405 0 0 0
428 1 1 0.5897 5.148909754043019 12.738506104545385 13.439557328115118 0 0 0
637 1 2 -1.1794 0.6745137264971331 13.632385616483916 13.067590347695507 0 0 0
638 1 1 0.5897 0.761877903045231 12.742354498039823 13.408819548216023 0 0 0
295 1 2 -1.1794 7.316273583487553 14.936201750818938 13.868537929329717 0 0 0
270 1 1 0.5897 7.49229803611813 16.63963234871823 13.36500054402553 0 0 0
297 1 1 0.5897 8.109137662836876 14.478850141474751 13.58857281230327 0 0 0
268 1 2 -1.1794 7.531181126149692 17.556418629407432 13.092579940882668 0 0 0
455 1 1 0.5897 5.182425596867251 13.579449425353655 11.336038966104674 0 0 0
269 1 1 0.5897 7.503646708684921 17.524012405865307 12.136296547199525 0 0 0
605 1 1 0.5897 3.1758552091400416 17.47980401730272 12.344146654419266 0 0 0
604 1 2 -1.1794 3.182591401881423 17.5218754937353 13.300427727162884 0 0 0
767 1 1 0.5897 0.8761507255685564 13.5571366488146 11.269327326464511 0 0 0
824 1 1 0.5897 3.86867392594793 14.34409872611058 17.147313102791784 0 0 0
664 1 2 -1.1794 3.196635610475648 14.730683203992532 21.309855304128853 0 0 0
50 1 1 0.5897 7.54342826154002 15.61830018437551 17.048399757301933 0 0 0
610 1 2 -1.1794 7.574219320809285 17.304232148145708 17.629802314102147 0 0 0
51 1 1 0.5897 8.229947583749102 14.27023528464064 16.991476401976385 0 0 0
452 1 1 0.5897 0.8797401548263679 12.629147169598962 20.73997820013328 0 0 0
125 1 1 0.5897 5.386004195798124 13.414674610185859 18.540605218467263 0 0 0
124 1 2 -1.1794 5.321938559717945 13.362812587701296 17.586932215992032 0 0 0
684 1 1 0.5897 4.615851911209267 13.869157295850641 20.69660395211923 0 0 0
157 1 2 -1.1794 7.5543235961197315 17.288798151205157 20.40593866286245 0 0 0
666 1 1 0.5897 3.1292290661352364 15.631434400943013 20.99311055629363 0 0 0
316 1 2 -1.1794 7.578533697501411 14.722418142120507 21.24636255144631 0 0 0
52 1 2 -1.1794 0.9051363474861285 13.52642927245927 17.58855536949908 0 0 0
318 1 1 0.5897 7.559636134872473 15.629143758602057 20.94022836503649 0 0 0
665 1 1 0.5897 2.402954984880253 14.303155046671016 20.988176247394623 0 0 0
584 1 1 0.5897 3.129749109491585 16.601193780530963 17.33984603434286 0 0 0
683 1 1 0.5897 6.127949256932251 13.916295691816781 20.641266861632893 0 0 0
126 1 1 0.5897 6.052586076578482 13.892640119483193 17.26813861171101 0 0 0
682 1 2 -1.1794 5.375018378748546 13.407416763002221 20.340720114291415 0 0 0
117 1 1 0.5897 9.030082520094503 13.930134819888968 20.586554689152536 0 0 0
53 1 1 0.5897 0.8450770632525292 13.500543465785796 18.5435466562343 0 0 0
451 1 2 -1.1794 0.933558239237485 13.503436459572605 20.35403586259053 0 0 0
825 1 1 0.5897 2.3564595735699863 14.387575050335823 17.09220686179968 0 0 0
159 1 1 0.5897 7.5715372737865865 17.303905271785396 19.44898255402442 0 0 0
49 1 2 -1.1794 7.46638944999724 14.745258895040507 16.663573253118457 0 0 0
716 1 1 0.5897 3.1364183807667696 17.357749258472417 19.41036021853454 0 0 0
715 1 2 -1.1794 3.1096813580694582 17.399013285769932 20.366324855385788 0 0 0
583 1 2 -1.1794 3.099557595423638 17.499314513954197 17.66953967397708 0 0 0
823 1 2 -1.1794 3.137994825692114 14.866943079966433 16.817261633935114 0 0 0
267 1 1 0.5897 5.900851360132479 21.787317262956016 2.7218354521709003 0 0 0
696 1 1 0.5897 1.4170353131178255 21.74610153207609 2.765086514711663 0 0 0
266 1 1 0.5897 4.389586495556466 21.702269997356765 2.745582292595344 0 0 0
265 1 2 -1.1794 5.177657961025308 21.259543033560988 3.060419773159592 0 0 0
344 1 1 0.5897 1.5208864482384281 18.35795040572014 2.398613982112404 0 0 0
228 1 1 0.5897 5.233070658719369 19.666596552262824 2.2790190696478994 0 0 0
343 1 2 -1.1794 0.7138612049132412 18.783113953815807 2.108556482470623 0 0 0
817 1 2 -1.1794 7.368180013857206 22.617596452272714 2.03354341093031 0 0 0
249 1 1 0.5897 5.351064148983114 21.254998081829626 4.809690334594092 0 0 0
226 1 2 -1.1794 5.293118003489544 18.783085016518555 1.9156616250733791 0 0 0
187 1 2 -1.1794 2.9109063180267696 22.506374306178195 2.09941681639401 0 0 0
695 1 1 0.5897 0.6487577507240436 20.441797112682288 2.7840958980371764 0 0 0
694 1 2 -1.1794 0.6603886632261267 21.319097132680383 3.16676748013522 0 0 0
818 1 1 0.5897 8.127820263118762 22.171900951378746 2.4083696355328894 0 0 0
498 1 1 0.5897 7.487150681527829 22.648957254348616 0.2659601430474363 0 0 0
189 1 1 0.5897 2.9832912285963182 22.51779950732803 1.1449974834386174 0 0 0
413 1 1 0.5897 0.697209582905568 21.219700891773684 4.926576524967528 0 0 0
227 1 1 0.5897 4.513193950107064 18.335305928175146 2.243381281898149 0 0 0
345 1 1 0.5897 0.7904721476580487 18.81838009382271 1.1550511396412304 0 0 0
450 1 1 0.5897 6.672648315466126 17.93629224099969 2.6883036334168557 0 0 0
602 1 1 0.5897 5.317830468316824 18.790909094708695 0.17372739489134664 0 0 0
321 1 1 0.5897 8.88311709053025 18.36428889870043 2.414263222380788 0 0 0
188 1 1 0.5897 2.965502394635796 23.42712132649175 2.355282142026728 0 0 0
555 1 1 0.5897 5.119133330936022 20.516644302878042 10.04681309468633 0 0 0
342 1 1 0.5897 0.8445818617020704 18.55231168801609 7.578709961460453 0 0 0
87 1 1 0.5897 8.118963174618475 22.171227691667873 9.880074389343697 0 0 0
37 1 2 -1.1794 2.966401853121034 22.71803928235203 9.307040483408318 0 0 0
86 1 1 0.5897 7.475941201970785 22.631482264220125 8.589087874324788 0 0 0
248 1 1 0.5897 4.55635168550384 21.710875036901477 6.014902986687301 0 0 0
32 1 1 0.5897 8.283681385391622 22.141557743153243 6.515712742447127 0 0 0
404 1 1 0.5897 1.6321025834325797 18.274422211541754 9.885850402396581 0 0 0
39 1 1 0.5897 3.7126081875871244 22.254824895678354 9.687569981585284 0 0 0
553 1 2 -1.1794 5.101051040439672 21.397290042907677 10.42146831899116 0 0 0
701 1 1 0.5897 3.0224691741134952 22.61770195291256 7.531609491510237 0 0 0
414 1 1 0.5897 0.719433126543676 20.375240747328384 6.182908636604075 0 0 0
387 1 1 0.5897 5.228864225361594 19.5443541471651 6.425662290810999 0 0 0
102 1 1 0.5897 5.174656451142122 18.76542278782781 8.568869463066418 0 0 0
700 1 2 -1.1794 3.0626622985092053 22.556802748326838 6.577165692326399 0 0 0
385 1 2 -1.1794 5.138746155032095 18.669321392704745 6.8030535732931945 0 0 0
702 1 1 0.5897 2.2516993745802307 22.112087848658668 6.330693117342051 0 0 0
38 1 1 0.5897 2.1998641838193524 22.24494618894628 9.630756266317816 0 0 0
101 1 1 0.5897 5.982609615516129 18.407742787990294 9.79818347980205 0 0 0
341 1 1 0.5897 1.563377408338142 18.188398688932743 6.296973301817821 0 0 0
33 1 1 0.5897 6.771872567525205 22.06409259937498 6.5033967144922435 0 0 0
247 1 2 -1.1794 5.346268262856389 21.23070836241844 5.766598308365925 0 0 0
85 1 2 -1.1794 7.367822102741744 22.657251222652306 9.539840301451271 0 0 0
554 1 1 0.5897 5.906258536268326 21.80839691858627 10.10711519563611 0 0 0
340 1 2 -1.1794 0.7771315343272945 18.62359868433503 6.626526457140604 0 0 0
386 1 1 0.5897 5.9242688950435936 18.202791321912322 6.517590768455791 0 0 0
31 1 2 -1.1794 7.500191036804973 22.58954883535246 6.834516830945831 0 0 0
100 1 2 -1.1794 5.178754100620963 18.84819819474812 9.522503657352402 0 0 0
412 1 2 -1.1794 0.7218863276319438 21.283688505692645 5.881345239216057 0 0 0
403 1 2 -1.1794 0.8543714350978423 18.640029360314095 9.464351926275786 0 0 0
94 1 2 -1.1794 0.829326661827706 21.2874424409298 10.238630008925355 0 0 0
405 1 1 0.5897 0.8611150854997301 19.565276471954405 9.709495288994283 0 0 0
383 1 1 0.5897 3.8210008939475104 17.93464840630493 10.241024442816403 0 0 0
185 1 1 0.5897 8.326202302415032 17.974613869558183 10.058923020919142 0 0 0
240 1 1 0.5897 3.7390833229870593 17.86919467602985 6.057612143128244 0 0 0
309 1 1 0.5897 8.151727152362348 17.71010881863461 6.143158321720823 0 0 0
380 1 1 0.5897 0.821337145514279 20.499748301901285 13.25885912807837 0 0 0
88 1 2 -1.1794 5.132675798391318 21.538573795472324 13.203799592682675 0 0 0
381 1 1 0.5897 1.516278462821961 21.836544984529368 13.406710043893623 0 0 0
90 1 1 0.5897 5.2684743777897385 20.640789806249657 13.506729208978324 0 0 0
763 1 2 -1.1794 5.371105137384456 18.90953690150802 14.096454212659216 0 0 0
738 1 1 0.5897 3.608107298580718 22.246955565882054 13.908134957426249 0 0 0
89 1 1 0.5897 5.132597828441303 21.47224025984808 12.248872263709774 0 0 0
764 1 1 0.5897 4.607542793134999 18.39247463983734 13.839924682023947 0 0 0
474 1 1 0.5897 5.4018121364463765 18.76422935254964 15.878545245736753 0 0 0
765 1 1 0.5897 6.119962303889545 18.40688785206826 13.775911818401262 0 0 0
350 1 1 0.5897 2.937876761151316 22.743176545591837 15.979110187848189 0 0 0
736 1 2 -1.1794 2.820599831467759 22.655494855204623 14.26746264181503 0 0 0
787 1 2 -1.1794 7.430694266659221 22.85780795660105 13.956798414804041 0 0 0
503 1 1 0.5897 1.646782513127352 18.358178864431977 13.6323678355575 0 0 0