#include		in.partitions
include		in.temp
variable        temperature equal 257.38
variable	tempDamp equal 100.0
include		in.pressure
variable        pressure equal 7625.0
variable        pressureDamp equal 1000.0 # This is 1 ps
include		in.seed
variable        seed equal 745823

units		real
atom_style	full
read_restart	restart.lmp.${pid}
read_restart	restart.lmp.1
Reading restart file ...
  restart file = 30 Jul 2021, LAMMPS = 30 Jul 2021
  restoring atom style full from restart
  orthogonal box = (0.59953548 1.7977049 0.73143189) to (17.608037 21.831473 21.481764)
  2 by 4 by 4 MPI processor grid
  restoring pair style lj/cut/tip4p/long/omp from restart
  restoring bond style harmonic/omp from restart
  restoring angle style harmonic/omp from restart
  864 atoms
  576 bonds
  288 angles
Finding 1-2 1-3 1-4 neighbors ...
  special bond factors lj:    0        0        0       
  special bond factors coul:  0        0        0       
     2 = max # of 1-2 neighbors
     1 = max # of 1-3 neighbors
     1 = max # of 1-4 neighbors
     2 = max # of special neighbors
  special bonds CPU = 0.002 seconds
  read_restart CPU = 0.007 seconds
include 	in.setup
variable	out_freq equal 1000
variable	out_freq2 equal 10000
variable	out_freq3 equal 1000

timestep	2.0

neigh_modify    delay 7 every 1

include		in.tip4p
# This is TIP4P/Ice

# create groups ###
group ox type 2
288 atoms in group ox
group hy type 1
576 atoms in group hy

# set charges - beside manually ###
set group ox charge -1.1794
Setting atom values ...
  288 settings made for charge
set group hy charge 0.5897
Setting atom values ...
  576 settings made for charge

# ### TIP3P Potential Parameters ###
pair_style lj/cut/tip4p/long/omp 2 1 1 1 0.1577 8.5
pair_coeff 1 1*2 0.000 0.000
pair_coeff 2 2 0.21084 3.1668
bond_style  harmonic
bond_coeff  1 450 0.9572
angle_style harmonic
angle_coeff 1 55 104.52
kspace_style pppm/tip4p/omp 1.0e-5
pair_modify tail yes

thermo          ${out_freq}
thermo          1000
thermo_style    custom step temp pe etotal epair emol press lx ly lz vol pxx pyy pzz pxy pxz pyz enthalpy

restart 	${out_freq3} restart.lmp.${pid} restart2.lmp.${pid}
restart 	1000 restart.lmp.${pid} restart2.lmp.${pid}
restart 	1000 restart.lmp.1 restart2.lmp.${pid}
restart 	1000 restart.lmp.1 restart2.lmp.1


include         in.dump
dump            myDump all atom ${out_freq2} dump.water.${pid}
dump            myDump all atom 10000 dump.water.${pid}
dump            myDump all atom 10000 dump.water.1
dump            myDump2 all dcd ${out_freq2} dump.dcd
dump            myDump2 all dcd 10000 dump.dcd
dump_modify     myDump append yes
dump_modify     myDump2 append yes


variable natoms 	equal  "count(all)"                        # NUMBER ATOMS
variable H      	equal  "enthalpy/v_natoms"                 # ENTHALPY-per-atom
variable Vol      	equal  "vol/v_natoms"                 # volume-per-atom
fix AVG all 		ave/time ${out_freq} 1 ${out_freq} v_Vol v_H file vol_enthalpy.dat
fix AVG all 		ave/time 1000 1 ${out_freq} v_Vol v_H file vol_enthalpy.dat
fix AVG all 		ave/time 1000 1 1000 v_Vol v_H file vol_enthalpy.dat


timer           timeout 23:50:00 every 1000
New timer settings: style=normal  mode=nosync  timeout=23:50:00

fix 		1 all shake 1e-6 200 0 b 1 a 1
       0 = # of size 2 clusters
       0 = # of size 3 clusters
       0 = # of size 4 clusters
     288 = # of frozen angles
  find clusters CPU = 0.001 seconds
fix             2 all nph iso ${pressure} ${pressure} ${pressureDamp}
fix             2 all nph iso 7625 ${pressure} ${pressureDamp}
fix             2 all nph iso 7625 7625 ${pressureDamp}
fix             2 all nph iso 7625 7625 1000
fix             3 all temp/csvr ${temperature} ${temperature} ${tempDamp} ${seed}
fix             3 all temp/csvr 257.38 ${temperature} ${tempDamp} ${seed}
fix             3 all temp/csvr 257.38 257.38 ${tempDamp} ${seed}
fix             3 all temp/csvr 257.38 257.38 100 ${seed}
fix             3 all temp/csvr 257.38 257.38 100 745823

run             250000
PPPM initialization ...
  extracting TIP4P info from pair style
  using 12-bit tables for long-range coulomb (../kspace.cpp:340)
  G vector (1/distance) = 0.37409885
  grid = 24 24 24
  stencil order = 5
  estimated absolute RMS force accuracy = 0.0031796222
  estimated relative force accuracy = 9.5753379e-06
  using double precision FFTW3
  3d grid and FFT values/proc = 3549 432
Last active /omp style is kspace_style pppm/tip4p/omp
Neighbor list info ...
  update every 1 steps, delay 7 steps, check yes
  max neighbors/atom: 2000, page size: 100000
  master list distance cutoff = 10.8154
  ghost atom cutoff = 10.8154
  binsize = 5.4077, bins = 4 4 4
  1 neighbor lists, perpetual/occasional/extra = 1 0 0
  (1) pair lj/cut/tip4p/long/omp, perpetual
      attributes: half, newton on, omp
      pair build: half/bin/newton/omp
      stencil: half/bin/3d
      bin: standard
Per MPI rank memory allocation (min/avg/max) = 10.20 | 10.20 | 10.20 Mbytes
Step Temp PotEng TotEng E_pair E_mol Press Lx Ly Lz Volume Pxx Pyy Pzz Pxy Pxz Pyz Enthalpy 
 9500000    273.30785   -3863.9815   -3395.5412   -3863.9815            0    9343.4517    17.008501    20.033768    20.750332    7070.5589    10257.019    8241.1913    9532.1444    174.35873   -55.211851    263.62392   -2432.0739 
 9501000    249.45332   -3859.9856   -3432.4311   -3859.9856            0    7835.2802    17.019563    20.046797    20.763827    7084.3629    8700.7368     7360.116     7444.988    1798.2987   -806.74378    99.926804   -2622.9043 
 9502000     256.8653   -3884.0992   -3443.8409   -3884.0992            0    6691.3828    17.025528    20.053823    20.771105    7091.8145    7909.4768    5322.3964    6842.2753   -713.78197    983.14067    298.40476   -2751.7723 
 9503000    259.51521   -3897.4678   -3452.6676   -3897.4678            0    4701.4803    17.129445    20.176224    20.897883    7222.4654    5388.1781    4674.1596    4042.1034   -401.62409   -2174.3447    407.30394   -2957.4501 
 9504000    240.11731   -3912.9339   -3501.3811   -3912.9339            0    7292.0075    17.005741    20.030516    20.746964    7067.1162    7079.6293    7247.1109    7549.2823    674.44615   -521.54684   -1315.2936   -2749.8183 
 9505000    250.79264   -3849.4531   -3419.6031   -3849.4531            0     8425.748    16.993521    20.016123    20.732056     7051.893    7460.6046    7151.4865    10665.153   -1532.0216    1200.9467   -149.74348   -2553.0602 
 9506000    270.45431   -3889.2512   -3425.7018   -3889.2512            0     7079.822    17.017941    20.044886    20.761848    7082.3371     7271.929     7094.769    6872.7681    385.21604   -330.69019   -401.36511   -2694.4367 
 9507000    268.03643   -3871.0643    -3411.659   -3871.0643            0    7783.2623    16.954279    19.969901    20.684181    7003.1523     7505.334    7221.4405    8623.0126   -19.615823    2345.0303   -517.68833   -2616.7249 
 9508000    270.46549   -3868.7248   -3405.1562   -3868.7248            0    8030.9478    16.998449    20.021927    20.738068    7058.0291    8179.2888    5385.3042     10528.25   -330.36969   -1013.9379   -914.49839   -2578.4977 
 9509000    273.26761   -3875.5941   -3407.2228   -3875.5941            0    8072.1846    17.034297    20.064152    20.781802    7102.7778    6621.0424    10291.812    7303.6995   -374.40038    892.26752   -268.03309   -2571.0516 
 9510000    254.96388   -3880.8497   -3443.8503   -3880.8497            0    6757.9434    17.059732    20.094111    20.812833    7134.6426    7098.4047    8282.1375    4893.2881   -1144.8334   -1344.3122    -603.8566   -2740.6766 
 9511000    259.82823   -3883.4614   -3438.1247   -3883.4614            0    6045.2905    17.063079    20.098053    20.816916     7138.842    6532.2273    6316.1084    5287.5358    1249.1344   -686.18945    591.19796   -2808.7332 
 9512000    264.19163   -3841.4332   -3388.6178   -3841.4332            0    8377.7577    17.014392    20.040706    20.757518    7077.9072    8617.2095    9157.6278    7358.4358    750.23733   -404.98107   -247.61981    -2523.832 
 9513000     256.4765   -3828.5842   -3388.9923   -3828.5842            0    9890.6694    16.984098    20.005024     20.72056    7040.1686    10101.837    8691.2056    10878.966    1087.1675   -1685.5755   -502.18776   -2373.4813 
 9514000    255.19034   -3882.9294   -3445.5418   -3882.9294            0    7583.7578    17.002456    20.026648    20.742957    7063.0224    6452.3008    6289.9757    10008.997    483.84376    285.55205   -920.82396   -2664.3622 
 9515000    258.33017   -3854.8181    -3412.049   -3854.8181            0    8403.6383     16.99462    20.017418    20.733397    7053.2613    8216.6279     7963.834     9030.453    334.51232   -918.13939   -1202.4966   -2547.6123 
 9516000    261.16235   -3874.5559   -3426.9325   -3874.5559            0    9862.1372    16.975401     19.99478     20.70995    7029.3591    9470.6016    8920.0897     11195.72   -609.31174   -993.22906    121.38752   -2415.9058 
 9517000    262.50056    -3896.759    -3446.842    -3896.759            0    8769.5708    17.043233    20.074677    20.792705    7113.9621    8424.0891    6884.9052    10999.718   -327.10501    1064.0952    183.97159   -2537.0004 
 9518000    249.54224   -3893.0228    -3465.316   -3893.0228            0    6840.3529    17.014586    20.040934    20.757755    7078.1493      4907.67    8798.4034    6814.9853    1604.0342   -1515.2867    1140.7689   -2759.2031 
 9519000    258.26243   -3885.8016   -3443.1487   -3885.8016            0    9215.1834    17.051374    20.084267    20.802637    7124.1615    11412.233    7651.6185    8581.6988    645.65012      1340.51    398.15317   -2485.7041 
 9520000    255.89519   -3923.8333   -3485.2377   -3923.8333            0    7428.7416     17.04681    20.078891    20.797069    7118.4422    5596.7555      9465.16    7224.3093    903.01245   -32.575379   -1298.4223   -2714.0216 
 9521000    244.00464   -3878.3047   -3460.0891   -3878.3047            0    10210.514    16.963782    19.981095    20.695775    7014.9353    10735.149    9058.4876    10837.904    517.89606    541.32343    620.68708    -2415.496 
 9522000    264.10037   -3854.4093   -3401.7503   -3854.4093            0     6796.304     17.01658    20.043284    20.760188    7080.6392    7639.7939    6294.3238    6454.7943   -221.43997   -682.58184   -617.23529   -2699.9377 
 9523000    250.42112   -3905.3515   -3476.1382   -3905.3515            0    5886.5532    17.070269    20.106522    20.825688    7147.8703    5620.5128    6958.9451    5080.2015   -602.10556   -274.91077    711.97483   -2862.4983 
 9524000    261.13096   -3818.4253   -3370.8558   -3818.4253            0     8379.265    17.058578    20.092752    20.811425    7133.1946    10035.721    8627.2572    6474.8163   -1478.0262   -92.083188    355.26493   -2499.1581 
 9525000    253.67482   -3872.2306   -3437.4407   -3872.2306            0    7783.2652    17.088578    20.128088    20.848025    7170.8949     8659.018    7414.9229    7275.8548    565.40562    1875.1663   -1658.6476   -2623.4656 
 9526000    265.90533   -3850.7479   -3394.9953   -3850.7479            0    8082.5506     17.03026    20.059396    20.776877    7097.7287    8512.5397    6456.6228    9278.4892   -1399.9589    1554.5214    1024.3307   -2558.3455 
 9527000    264.67046   -3861.3077   -3407.6716   -3861.3077            0    8784.8866    17.027884    20.056598    20.773978    7094.7583    6395.5188    10749.519    9209.6216    1398.4825    429.39298   -361.65712   -2498.7013 
 9528000    265.47264   -3896.4276   -3441.4166   -3896.4276            0    7729.9451    17.082109    20.120468    20.840133    7162.7548    9764.5382    7996.2359    5429.0612    212.86866     1014.982    381.92226   -2633.9354 
 9529000    245.60351   -3861.9378   -3440.9818   -3861.9378            0    7203.3498    17.040472    20.071425    20.789336     7110.505    7194.4812    6750.4274    7665.1408   -2080.0437   -646.24308     575.3381   -2693.9986 
 9530000     269.2683   -3837.6775   -3376.1609   -3837.6775            0     8349.573    16.962345    19.979402    20.694021     7013.152    7239.9184    8458.3156    9350.4848    1062.0271   -97.572231    116.77654   -2522.1697 
 9531000      260.256   -3831.1617   -3385.0918   -3831.1617            0    8486.2169    17.028645    20.057495    20.774908    7095.7105    8007.8638    8163.1148    9287.6723    129.20492   -350.30392    2403.8629    -2506.907 
 9532000    272.10009   -3886.9151   -3420.5448   -3886.9151            0    8345.1423    17.029462    20.058457    20.775904    7096.7315    10560.468    7624.0242    6850.9341   -216.35119    238.34049   -756.51851   -2556.8347 
 9533000    274.03215   -3875.3255   -3405.6438   -3875.3255            0     6506.676    17.076368    20.113705    20.833129    7155.5343    8168.8268    6939.5276    4411.6737    48.829386    -801.3054    1205.5828   -2726.6322 
 9534000    257.18945   -3901.0235   -3460.2096   -3901.0235            0     6533.226    17.143816    20.193151    20.915416    7240.6591    7660.8349    4898.2089    7040.6343   -403.43397    710.91387   -1258.4954   -2770.3167 
 9535000    258.50643   -3882.2673   -3439.1962   -3882.2673            0    9368.8121    17.054365    20.087789    20.806285    7127.9104    10182.364    9117.6368     8806.435   -160.55769    954.54421    111.61917   -2465.2776 
 9536000    266.03186   -3903.4356   -3447.4661   -3903.4356            0    6969.0995     17.09119    20.131164    20.851211    7174.1833    6948.6075    7770.4045    6188.2864   -509.60892   -352.66204    -978.5867   -2718.3024 
 9537000    263.34822   -3891.2225   -3439.8526   -3891.2225            0    8865.9872    17.068107    20.103976    20.823051    7145.1556    8917.8109    7422.8847    10257.266    997.99313    873.98666   -1211.1685   -2515.9745 
 9538000    264.40695   -3881.6699   -3428.4854   -3881.6699            0    8014.8976     17.03466    20.064579    20.782245    7103.2316    8681.8479    7686.4073    7676.4375   -1324.2845    1306.8487    1095.2793   -2598.1953 
 9539000    256.39438   -3871.5089   -3432.0577   -3871.5089            0    6373.0373    17.131777    20.178971    20.900728    7225.4159    6636.7848    5693.0072      6789.32   -871.02013    692.77849    638.76747   -2760.4971 
 9540000    248.53267   -3867.7897   -3441.8132   -3867.7897            0    6976.5848     17.08974    20.129456    20.849443    7172.3578    9070.8471    6320.2858    5538.6215   -162.07701   -39.863884    553.04083   -2712.0521 
 9541000    252.14276   -3881.8643   -3449.7003   -3881.8643            0    7599.7056    17.048608    20.081008    20.799262    7120.6948    7705.6574    6171.6343    8921.8251    976.39885     751.7592    2132.1726   -2660.4858 
 9542000    255.24717   -3901.1335   -3463.6486   -3901.1335            0    9639.3189    17.092747    20.132999    20.853112     7176.145    9584.2809    9146.4186    10187.257    1160.1264    862.20329    205.78172   -2454.8291 
 9543000    238.12901    -3828.399    -3420.254    -3828.399            0    8069.7802    17.060331    20.094817    20.813564    7135.3939    7820.7356    8175.9013    8212.7038   -643.23342    652.17939   -1119.5177   -2580.4933 
 9544000     271.2139   -3875.5273    -3410.676   -3875.5273            0    10181.768    16.853499    19.851196     20.56123    6879.0088    10492.425    9647.0097    10405.868    383.11164     1438.593   -1577.1858   -2389.2076 
 9545000    246.57058   -3912.6817   -3490.0681   -3912.6817            0    6075.2771     17.00336    20.027712    20.744059    7064.1482    6175.6173    5179.2003    6871.0137   -1532.8376    1576.9368   -299.87174   -2864.1727 
 9546000    260.61197   -3877.4863   -3430.8062   -3877.4863            0     8271.312    17.030779    20.060009    20.777511    7098.3786    10365.336    6676.4886    7772.1111   -289.83645    1258.2569    -939.2772   -2574.5388 
 9547000    254.32782   -3911.5444   -3475.6352   -3911.5444            0    8345.5804    16.941271     19.95458    20.668311    6987.0455    8197.6998    8144.6565    8694.3848    509.42594    1316.7843   -1704.2248   -2625.2298 
 9548000    258.64629   -3896.4786   -3453.1677   -3896.4786            0      7172.97    17.030085     20.05919    20.776664    7097.5101    5392.5048    8525.5346    7600.8708    725.97777    846.47974   -341.87968   -2710.6943 
 9549000    266.79162   -3878.6265   -3421.3548   -3878.6265            0    6446.3818    17.007174    20.032205    20.748713    7068.9037    7716.7913    6532.2635    5090.0906    61.512797    1516.5155   -773.95338   -2756.7799 
 9550000    258.38799   -3894.0662    -3451.198   -3894.0662            0    8069.6991    16.994113    20.016821    20.732779    7052.6303     7585.782    9608.4476    7014.8675   -640.65634    301.14253    1558.9469   -2621.1861 
 9551000    256.99771   -3877.0919   -3436.6067   -3877.0919            0    4850.5897    17.092707    20.132951    20.853063    7176.0944    4990.3536     4163.479    5397.9365    1237.0862   -351.34816    1679.0086   -2928.9635 
 9552000    249.91916   -3885.4545   -3457.1016   -3885.4545            0    9136.3718    16.936601    19.949079    20.662614    6981.2687    9255.3223    10400.802    7752.9908   -59.120408   -479.56207    958.59635   -2526.8852 
 9553000    244.74474   -3869.0069   -3449.5227   -3869.0069            0    8647.0567    16.955909    19.971821     20.68617    7005.1725     8730.707    8802.2601     8408.203     1040.952    621.80014    476.58883   -2566.1113 
 9554000    264.45651   -3850.0662   -3396.7968   -3850.0662            0     7034.629     16.94484    19.958783    20.672665    6991.4621    7695.2327    4292.5298    9116.1244    1141.4302   -2345.8374    1432.8485   -2679.5228 
 9555000     256.8656   -3862.8065   -3422.5477   -3862.8065            0    6826.8813    16.998181    20.021612    20.737742    7057.6964    6274.2578     8439.097     5767.289   -424.65251    88.801796    959.28658   -2719.8618 
 9556000    252.88661   -3818.4342   -3384.9952   -3818.4342            0    7093.6168    16.993619    20.016239    20.732176    7052.0151    4775.4683    8256.1546    8249.2275     782.7171    -542.6372    1052.4049   -2655.4422 
 9557000    253.53882   -3867.2377   -3432.6808   -3867.2377            0    7234.8868     17.02449      20.0526    20.769838    7090.5173    8784.8487    8771.1585    4148.6533    490.65162   -1478.3112   -586.70597   -2684.5362 
 9558000    258.76595   -3874.7275   -3431.2115   -3874.7275            0    8697.5798    16.890977     19.89534    20.606953    6925.0021    8485.3582     10018.56    7588.8212   -464.92934     281.4277   -1194.0088   -2552.8077 
 9559000    262.04321   -3875.4725   -3426.3394   -3875.4725            0    7314.2758    17.031804    20.061216    20.778762    7099.6603    6068.9808    7788.0265    8085.8202   -609.68533   -1006.6848    792.66012   -2669.0101 
 9560000    240.44793   -3884.2001   -3472.0806   -3884.2001            0    7559.8223     16.98141    20.001858     20.71728    7036.8262    7286.1742    7421.3398    7971.9527    1877.9273    365.50934   -903.16742   -2696.2546 
 9561000    264.23487   -3898.9318   -3446.0423   -3898.9318            0     7973.535    17.009982    20.035512    20.752138    7072.4055    8029.6361     7704.754    8186.2148   -1447.9452   -781.89546   -823.64404   -2623.6218 
 9562000    268.36285   -3879.7584   -3419.7936   -3879.7584            0    6012.5242    17.019449    20.046662    20.763687      7084.22    4172.6592    7257.1292    6607.7843    -1061.545    754.92913   -262.57079   -2798.6032 
 9563000    259.14884   -3836.6627   -3392.4905   -3836.6627            0    6049.7271    17.034423      20.0643    20.781956    7102.9355    6646.3024    4855.7189    6647.1598   -122.03401    918.46467   -768.93491   -2765.8051 
 9564000    267.45079   -3908.1785    -3449.777   -3908.1785            0    7200.8871    17.065772    20.101225    20.820202    7142.2227    4705.6163     7171.736    9725.3092    1080.8136    168.31709    756.04154   -2699.7182 
 9565000    249.02494   -3883.8488   -3457.0286   -3883.8488            0    6125.4969    16.997362    20.020647    20.736742    7056.6756    5325.2749    4773.7095    8277.5063    647.58399    20.475204   -265.32428   -2826.6269 
 9566000    270.55956   -3860.4949   -3396.7651   -3860.4949            0    8982.7135    17.038472    20.069069    20.786896    7108.0012    7048.2977    9492.3591    10407.484   -188.22034   -1263.0142    953.61379   -2465.5909 
 9567000    237.52593   -3877.4851   -3470.3738   -3877.4851            0    8515.4789    16.957981    19.974262    20.688697    7007.7409    10007.682    8980.1593    6558.5952   -1177.9246   -125.44182   -1112.5467   -2600.0858 
 9568000    254.71094   -3883.7984   -3447.2326   -3883.7984            0    8487.4792    17.019734    20.046998    20.764036    7084.5763    6781.3581    9180.0591    9501.0205   -1857.4597   -610.45597    160.93651   -2570.2954 
 9569000     252.6717   -3913.4136   -3480.3429   -3913.4136            0    7926.9304     16.96844    19.986581    20.701457    7020.7149    6758.7463    9445.9988     7576.046   -1030.7704   -464.22909   -535.88721   -2668.7051 
 9570000    259.53729   -3895.3078   -3450.4698   -3895.3078            0    5798.4505    17.010693    20.036349    20.753006    7073.2924    7192.0713    3965.6691    6237.6109   -537.16188   -1347.1971    1119.1324   -2852.3207 
 9571000    255.34945    -3863.833   -3426.1727    -3863.833            0    9576.7054    16.947839    19.962316    20.676324    6995.1754    8512.3672    11091.144    9126.6047    454.08602    747.87814   -1111.3381   -2449.1816 
 9572000    275.71212   -3861.0809   -3388.5198   -3861.0809            0    7408.5484    17.079567    20.117473    20.837031    7159.5567      7820.99    7537.8794    6866.7759   -866.07276    805.66844   -765.08965   -2614.9577 
 9573000    242.63954   -3877.6739   -3461.7981   -3877.6739            0    8593.0443    16.975212    19.994557    20.709719    7029.1239    8981.5074    9494.2477    7303.3777    71.234396   -569.09421    309.87832   -2580.9031 
 9574000    256.56204   -3884.9422   -3445.2036   -3884.9422            0    8907.6582    16.986875    20.008295    20.723948    7043.6224      9963.14    6875.8138    9884.0207    468.02748   -46.835336   -58.325526   -2530.1733 
 9575000    251.62691   -3843.5356   -3412.2557   -3843.5356            0    9398.4766    16.975739    19.995178    20.710362    7029.7788    9016.4366    9241.8812     9937.112    84.844901   -975.28775   -74.472361    -2448.704 
 9576000    247.63117   -3875.1825   -3450.7512   -3875.1825            0    7811.0817     16.98815    20.009797    20.725503    7045.2084    7609.8527    8595.9583     7227.434   -496.16437   -638.27384    -332.1635   -2648.1849 
 9577000    249.42353   -3900.2979   -3472.7945   -3900.2979            0    7351.5581    17.004114    20.028601     20.74498    7065.0891    6034.1383    8461.2838    7559.2521    241.84101    847.67376   -776.69558   -2715.3115 
 9578000    276.80062   -3863.7783   -3389.3516   -3863.7783            0    7343.4072    17.015566    20.042089     20.75895    7079.3723    7160.0099    7882.8469    6987.3647   -1419.3663     559.4648   -680.50713   -2631.1787 
 9579000    259.87013   -3892.4678   -3447.0593   -3892.4678            0    8447.5262    16.985628    20.006826    20.722427    7042.0715    8558.3594     8958.917    7825.3023    1369.8782   -792.60064   -750.71308   -2579.4867 
 9580000    265.91024   -3856.7106   -3400.9496   -3856.7106            0    8080.4169    17.021777    20.049405    20.766528    7087.1276    5785.4333    7946.5694    10509.248     745.9948   -539.03486   -389.23429   -2565.7699 
 9581000    258.80197   -3873.5458   -3429.9681   -3873.5458            0     5832.657    17.133356     20.18083    20.902654    7227.4132    4440.0459    7554.0079     5503.917    508.71573   -759.95901   -311.61007   -2815.1803 
 9582000     259.0023   -3892.3558   -3448.4347   -3892.3558            0    7998.7411    17.056681    20.090517    20.809111    7130.8152    6507.3703    8812.9575    8675.8954    914.11206   -558.89419   -1533.9922   -2616.6006 
 9583000    254.04033   -3898.1968   -3462.7804   -3898.1968            0    7632.0291    17.105886    20.148474    20.869141    7192.7062    8473.7605    6876.9793    7545.3476   -1536.5203   -157.59114   -578.22328    -2662.194 
 9584000     271.0925   -3868.2284   -3403.5851   -3868.2284            0     8393.378    17.094872    20.135501    20.855704     7178.821     7103.153    8576.6119    9500.3691   -564.20813    1127.8893   -1585.8394   -2524.8342 
 9585000    271.62944   -3916.3615    -3450.798   -3916.3615            0     7959.022    17.077202    20.114688    20.834146     7156.583    7863.3471    6927.8778     9085.841   -1252.0679   -824.87343   -1180.0395   -2620.1035 
 9586000    260.87844   -3893.1844   -3446.0477   -3893.1844            0    7433.3026    17.067746    20.103551    20.822611     7144.702    7327.0503    8058.0097    6914.8478    1379.4535    -1824.941   -66.929618   -2671.5113 
 9587000    251.71936   -3899.8457   -3468.4074   -3899.8457            0    8487.6396    17.012016    20.037907    20.754619    7074.9426     9367.818    7954.5263    8140.5744    1272.0884    612.94907    903.64824   -2592.6461 
 9588000     263.7229   -3857.2811    -3405.269   -3857.2811            0    9811.8095    17.027363    20.055984    20.773343     7094.107     10082.55    9937.0769    9415.8014   -724.95397   -1190.5245   -1704.5949   -2390.1365 
 9589000    245.31846   -3865.8202   -3445.3528   -3865.8202            0     6392.591    17.010582    20.036219     20.75287    7073.1538    6705.2901    5999.4153    6473.0675    152.92238   -144.10895   -584.30774    -2785.927 
 9590000    248.99362   -3840.0713   -3413.3048   -3840.0713            0    8932.7792    16.976026    19.995516    20.710712    7030.1348    8705.9959     9391.344    8700.9978     1022.807    1087.9722   -779.43567    -2497.451 
 9591000    247.79704   -3853.9026    -3429.187   -3853.9026            0    8785.0478    16.950452    19.965393    20.679511    6998.4104    9937.6219    8728.5588    7688.9626   -1320.1226     1264.135    410.24499   -2532.5442 
 9592000    267.52439   -3869.7268   -3411.1992   -3869.7268            0    7566.0331    17.003386    20.027742    20.744091    7064.1807    7655.0051    6837.5724    8205.5219    920.54915     282.4737    710.17193   -2631.7175 
 9593000    253.28571   -3893.4361    -3459.313   -3893.4361            0    7521.0663    17.021058    20.048558    20.765651    7086.2303    5217.9038    8876.5116    8468.7834    271.15876    17.835342   -2268.9779   -2682.0454 
 9594000    255.68031   -3876.6901   -3438.4628   -3876.6901            0    3959.2444    17.062376    20.097225    20.816058    7137.9595     3328.346    3761.2374    4788.1497   -991.30053    763.86701    -1131.983   -3026.3062 
 9595000    256.39196   -3900.6518   -3461.2047   -3900.6518            0    8043.4818    17.028885    20.057777      20.7752    7096.0104    8252.3249    7839.5756    8038.5449   -516.59036   -139.31539   -1048.5331   -2628.8006 
 9596000    260.89516   -3868.5144    -3421.349   -3868.5144            0    7795.5963    17.055197     20.08877    20.807301    7128.9545    7858.9795    8443.3883    7084.4211   -323.20292   -1127.3506   -454.40027   -2610.8527 
 9597000    250.83959   -3884.4593   -3454.5288   -3884.4593            0     7112.207    17.135001    20.182768    20.904661    7229.4955     6984.293    8184.0508    6168.2772    1028.5081    398.04006   -748.28597   -2704.6548 
 9598000    244.52226   -3916.3382   -3497.2354   -3916.3382            0    6131.7544    17.066169    20.101693    20.820687    7142.7219    7154.0856    6702.7842    4538.3935    1202.7906     1256.192    809.95534    -2858.495 
 9599000    270.10686   -3941.3997   -3478.4458   -3941.3997            0    7204.5769    17.014039     20.04029    20.757087    7077.4667    7017.8706    7898.0174    6697.8426   -348.12706   -383.64443   -471.07959   -2734.8067 
 9600000    257.70371   -3946.6818   -3504.9865   -3946.6818            0    8911.2955    16.995281    20.018196    20.734203    7054.0836    9598.9822    8199.4164    8935.4879    1905.4754    1319.4408   -922.22832   -2588.2229 
 9601000    244.28485   -3920.7403   -3502.0445   -3920.7403            0    7893.3427    16.995984    20.019024    20.735061    7054.9595    7170.5606     9798.627    6710.8406    1022.9071    57.429063    1821.2034   -2689.9036 
 9602000    268.08228   -3908.0525   -3448.5686   -3908.0525            0    7392.0098    17.027257    20.055859    20.773213    7093.9746    7394.5986    8586.1508    6195.2799    595.65276    1007.1695    758.06828   -2683.8035 
 9603000    261.59888   -3880.6805    -3432.309   -3880.6805            0    8226.6891    16.987021    20.008467    20.724126    7043.8037    8565.3352    7673.4733    8441.2588    2169.7306    427.61114    427.96368   -2587.2087 
 9604000    257.41711   -3906.3846   -3465.1805   -3906.3846            0    8317.8237    17.040617    20.071596    20.789513    7110.6871    7915.6707     9121.547    7916.2535    708.46105    566.69084   -1162.5037   -2602.6049 
 9605000    260.53901   -3883.1832   -3436.6283   -3883.1832            0    8978.7519    17.021063    20.048564    20.765657     7086.236    7285.4675    10691.673    8959.1155   -1608.4874   -2299.7108    111.24607   -2508.7148 
 9606000    243.35847   -3917.4485   -3500.3404   -3917.4485            0    7105.4481     17.03714      20.0675    20.785271    7106.3348    6648.2499    7319.8718    7348.2227   -152.99101    677.80736    164.24459   -2763.9417 
 9607000    250.94272   -3912.4557   -3482.3485   -3912.4557            0    8406.5741    16.955287    19.971088     20.68541    7004.4008    8415.3895    10450.492    6353.8413    407.62365    191.77785   -746.24358   -2623.6001 
 9608000    248.14604   -3894.5466   -3469.2328   -3894.5466            0    8068.2361    16.970197     19.98865      20.7036    7022.8955    7730.8999    9012.1207    7461.6877    198.51368   -1600.1006    118.24845   -2642.8701 
 9609000    262.36394    -3915.532   -3465.8492    -3915.532            0    8877.6071    16.932363    19.944087    20.657443    6976.0295    9106.4781     7640.081     9886.262   -1260.8247   -351.77195    853.52121   -2562.6571 
 9610000    259.94468   -3891.3878   -3445.8515   -3891.3878            0    8380.5411    16.983354    20.004148    20.719653    7039.2439    9219.4996    6309.4277    9612.6961    2219.5035   -1641.7933   -1217.7836   -2585.5039 
 9611000     252.9961   -3872.4598   -3438.8331   -3872.4598            0    6099.5754    17.077299    20.114802    20.834264    7156.7048    5021.0131    6932.3973    6345.3156   -45.255614   -706.33375    1217.3229   -2802.2009 
 9612000    255.64148   -3903.5082   -3465.3474   -3903.5082            0    4991.4216    17.048255    20.080593    20.798832     7120.253    5822.8593    3226.2529    5925.1524    307.71894    514.67897    -326.0385   -2947.0303 
 9613000    246.93604   -3874.9254   -3451.6855   -3874.9254            0    8802.4974    16.923523    19.933675    20.646659     6965.109    7852.5595    9438.1851    9116.7476   -211.15145    666.21507   -243.28665   -2557.5369 
 9614000    274.26237   -3872.0346   -3401.9583   -3872.0346            0    7446.6455    16.988158    20.009806    20.725513    7045.2188     8323.972     6666.999    7348.9654   -895.61019   -989.88319    1362.0341   -2636.8357 
 9615000    268.24015   -3884.6394    -3424.885   -3884.6394            0    5953.3889    17.004771    20.029375    20.745782    7065.9082    7252.2126    3875.8606    6732.0936     -1329.08    1515.5248   -1000.0364   -2811.3941 
 9616000    250.88172    -3908.767   -3478.7643    -3908.767            0    9375.0613    16.956923    19.973015    20.687406    7006.4289    10432.385    9778.4649    7914.3336   -94.330975   -896.40102    -724.8146   -2520.8058 
 9617000    251.53053   -3932.7556   -3501.6409   -3932.7556            0    8897.5698    16.942548    19.956083    20.669869    6988.6252    9925.7304    8247.3242    8519.6547   -1050.4506    747.37058    -100.5531   -2594.7834 
 9618000     250.2209   -3926.4007   -3497.5306   -3926.4007            0    6536.5593     16.93882    19.951693    20.665321    6984.0134    6226.0508    7638.4015    5745.2256     147.0704     43.82264    490.24251   -2831.7515 
 9619000    268.17014   -3887.4401   -3427.8057   -3887.4401            0    9853.6612    16.929889    19.941173    20.654425    6972.9722    10509.948    9251.8599    9799.1756   -2839.7751   -343.29306   -199.54528    -2425.751 
 9620000    255.02942   -3909.6927    -3472.581   -3909.6927            0    7203.3708    16.990999    20.013152    20.728979    7048.7532    6547.5992    7341.1695    7721.3438   -327.85807   -468.91347    851.63674   -2732.0828 
 9621000    257.12699   -3908.5129    -3467.806   -3908.5129            0    7805.6109    16.983579    20.004413    20.719927    7039.5233     6094.356    9326.7503    7995.7263    59.516917    415.92469    1061.5252    -2666.449 
 9622000    265.70647   -3869.1563   -3413.7445   -3869.1563            0    9882.9375     16.96811    19.986192    20.701055    7020.3053    11224.602     10191.64    8232.5703   -537.88192   -1256.3144    32.091227   -2401.8903 
 9623000    249.55189   -3937.2736   -3509.5502   -3937.2736            0    7631.3022    17.004847    20.029463    20.745873    7066.0017    7399.8104    6615.4536    8878.6426    138.32137     -2018.21    2255.3396   -2723.1416 
 9624000    272.98106   -3922.6626   -3454.7824   -3922.6626            0    5729.3548    17.002331      20.0265    20.742804    7062.8668    6066.2407    5877.1104    5244.7134    303.63444    1541.5005    2764.2083   -2864.6321 
 9625000    272.45986   -3890.7303   -3423.7435   -3890.7303            0    10134.514    16.963343    19.980577    20.695239      7014.39    9607.0673    8659.5724    12136.904    1022.9864     588.8756   -307.60784   -2387.0061 
 9626000     274.2874   -3943.4241   -3473.3049   -3943.4241            0    7752.4131    17.044213    20.075832      20.7939    7115.1895    5560.3111    9616.1584    8080.7698   -733.75198   -1818.8653    1244.0132   -2668.8545 
 9627000     260.1384   -3899.3338   -3453.4655   -3899.3338            0    7555.8356    17.019344    20.046539    20.763559    7084.0889    7528.6745    7316.7293    7822.1029    359.64962    523.76015    -574.3617   -2672.8406 
 9628000    256.42288   -3897.6604   -3458.1603   -3897.6604            0     8559.905    17.055749     20.08942    20.807974    7129.6465    8558.0017    7570.8077    9550.9057   -549.24206    1067.9032    -356.7089   -2568.1136 
 9629000    262.71277   -3890.0465   -3439.7658   -3890.0465            0    8831.6704    17.005847    20.030642    20.747094    7067.2495    8345.3031    8547.6241    9602.0841   -2352.8013    442.93535    583.64179    -2529.498 
 9630000    258.77663   -3935.6957   -3492.1614   -3935.6957            0    8192.3182    16.948232    19.962778    20.676803    6995.6614     7326.576    8094.6017    9155.7768   -27.215611   -489.94204   -1966.0169   -2656.3438 
 9631000    256.67407   -3910.6222   -3470.6916   -3910.6222            0    7592.5255    16.974111     19.99326    20.708375     7027.756    7728.5629    5993.6813    9055.3325   -1292.3753    -49.85295   -1411.3187   -2692.5138 
 9632000    258.37718   -3874.6015   -3431.7518   -3874.6015            0    5438.4225    17.024395    20.052489    20.769722    7090.3988    6212.4219    4169.6375    5933.2081   -364.85071    619.95837    -169.5725   -2869.3852 
 9633000    255.93411   -3907.4505   -3468.7882   -3907.4505            0    7433.2414    16.983071    20.003815    20.719307    7038.8917    9231.9341    6955.9628    6111.8274    231.91931   -1466.1808   -310.38803   -2705.7287 
 9634000    243.56082   -3915.8924   -3498.4375   -3915.8924            0    7840.2718    16.991369    20.013589    20.729431    7049.2146    7741.5508    9114.2118    6665.0527    57.802327    9.8334628    32.174028    -2692.414 
 9635000    252.05385   -3944.5605   -3512.5488   -3944.5605            0    4667.8555    17.016481    20.043167    20.760068    7080.5156    5149.9316     5826.928     3026.707   -753.57519    484.86353    905.89559   -3030.5364 
 9636000    248.18915   -3869.9017    -3444.514   -3869.9017            0    7003.9131    17.022779    20.050585    20.767751    7088.3797    7462.8481    8763.0606    4785.8308    1237.4122    2196.9748   -188.31306   -2720.4722 
 9637000    263.35379   -3901.0341   -3449.6547   -3901.0341            0    8346.9876    16.968959    19.987192     20.70209    7021.3588    9985.8763    7300.5037    7754.5827    79.717786   -1705.9722   -1253.1663   -2594.9289 
 9638000    254.12216   -3882.1001   -3446.5434   -3882.1001            0    7259.9659    17.023957    20.051972    20.769188    7089.8511     7809.673    7453.4681    6516.7567    409.08891    177.55738    15.494097    -2695.876 
 9639000    232.44323   -3877.6429   -3479.2431   -3877.6429            0    6929.0288     16.97122    19.989856    20.704849    7024.1665    7757.9756    7834.0767    5195.0343    586.47843    1397.0654   -1416.6606   -2769.4316 
 9640000     266.4774   -3882.2857   -3425.5526   -3882.2857            0    8228.1906    17.023804    20.051793    20.769001    7089.6606    6156.8026    9843.6201    8684.1491    1695.8299   -603.20168    1927.9408   -2574.7953 
 9641000    253.19716   -3908.1882   -3474.2169   -3908.1882            0    7365.3571    17.019517    20.046743    20.763771    7084.3053    9701.3794    6115.9678    6278.7241   -1260.1334    288.17779   -281.90825   -2713.2479 
 9642000    255.31872    -3932.161   -3494.5535    -3932.161            0    6541.5825    17.078999    20.116805    20.836339    7158.8431    6798.0075    6263.7535    6562.9865   -1602.5504   -1127.5515    1148.7424   -2811.5836 
 9643000     243.1935   -3876.3475   -3459.5222   -3876.3475            0    9228.6394    16.969485    19.987812    20.702732    7022.0122    8024.1638    9507.8098    10153.945   -460.02774   -832.64273    1014.3422   -2514.4279 
 9644000    255.49604   -3910.9568   -3473.0453   -3910.9568            0    7870.0208    17.035355    20.065398    20.783094    7104.1017    7155.3474     8512.245      7942.47   -688.23929   -401.24391    845.89244   -2657.6636 
 9645000    258.84464   -3878.8687   -3435.2179   -3878.8687            0    7459.6798     17.08969    20.129397    20.849382    7172.2947    6870.1921    7059.6558    8449.1915    1323.2443    523.30326    1345.2303   -2654.9312 
 9646000    248.23245   -3878.8217   -3453.3598   -3878.8217            0    9194.3537    17.017753    20.044665    20.761619    7082.1031    9214.6798    9072.7961    9295.5851     1057.487   -618.67679   -423.96512    -2503.719 
 9647000    249.86413   -3908.9002   -3480.6416   -3908.9002            0    9009.4862    17.017965    20.044915    20.761878    7082.3683    9627.7883    8719.1638    8681.5066    336.12817   -141.81466    935.50578   -2550.0601 
 9648000    247.44822   -3877.2277   -3453.1099   -3877.2277            0    7745.5102    16.913653    19.922049    20.634617    6952.9297    7811.6368     8635.627    6789.2668    778.42212   -594.12303   -154.53483   -2667.7048 
 9649000    257.76052   -3847.5664   -3405.7737   -3847.5664            0    7165.4277    17.056668    20.090502    20.809096    7130.7993    7140.7264    7911.6899    6443.8668    140.57132   -1247.5075    316.38298   -2660.6022 
 9650000    249.74818   -3870.5846   -3442.5248   -3870.5846            0    6671.3318    16.981676    20.002171    20.717605    7037.1571    8418.9584    5371.3353    6223.7016   -61.603206    35.505793   -832.21401   -2757.8479 
 9651000    249.56461   -3846.2409   -3418.4957   -3846.2409            0    7626.8516    16.997121    20.020364    20.736448    7056.3759     8494.013    6660.8333    7725.7086    266.23154   -1112.9594   -96.323509   -2633.6164 
 9652000    250.56591   -3891.0287   -3461.5673   -3891.0287            0    6565.7228    17.044113    20.075714    20.793778     7115.064    7109.7729    5625.9955       6961.4   -395.44924   -696.51595   -1062.2762   -2780.2691 
 9653000    261.63435   -3882.4431   -3434.0108   -3882.4431            0    5798.5981    17.026903    20.055443    20.772782    7093.5332    6234.7703    6685.3491    4475.6749   -568.25298   -801.71024    818.14311   -2834.1347 
 9654000    250.46465   -3889.5982   -3460.3104   -3889.5982            0    8374.4754    16.970731     19.98928    20.704253    7023.5597    8690.6897     7215.208    9217.5285    373.57637   -696.73593    778.73036    -2602.501 
 9655000    253.42706   -3899.2216   -3464.8563   -3899.2216            0    6301.7351    17.056454     20.09025    20.808834    7130.5306    5017.4309    8881.8868    5005.8876    121.03155   -408.09969     483.5324   -2809.5296 
 9656000      244.798   -3904.8083   -3485.2329   -3904.8083            0    9181.2571     16.90898    19.916545    20.628916    6947.1682    9517.3329    9556.0309    8470.4074   -1216.5034   -1552.3431    -1506.124   -2555.0125 
 9657000    241.17745   -3878.1238   -3464.7539   -3878.1238            0    9757.4938    16.949379    19.964129    20.678203    6997.0818    10273.431    11254.444    7744.6062   -442.42916   -762.33153    1200.5416   -2469.0479 
 9658000    256.02011   -3901.5511   -3462.7414   -3901.5511            0    6876.8534    16.979317    19.999393    20.714728    7034.2252    5844.0497    8032.1468    6754.3636   -2194.7682    549.55898   -309.47967    -2757.266 
 9659000    247.35576   -3889.3292   -3465.3698   -3889.3292            0    7248.9399    16.967276     19.98521    20.700037    7019.2699    7866.5788    7073.5416    6806.6993    -381.8239   -1132.2112    2340.9829   -2723.3042 
 9660000    277.51365   -3898.5534   -3422.9045   -3898.5534            0    9733.5411    16.909928    19.917662    20.630073    6948.3368    10578.845     9618.459    9003.3196   -133.25353   -373.30848    637.73681   -2436.5623 
 9661000    258.81823   -3939.2925   -3495.6869   -3939.2925            0    6925.9255     16.98645    20.007795     20.72343    7043.0941     6734.511    7156.3979    6886.8674    226.32995    899.17565    802.84085   -2784.2815 
 9662000    248.34294   -3901.9749   -3476.3236   -3901.9749            0    8463.6939    17.023241    20.051129    20.768314    7088.9568    8060.0137    8322.2125    9008.8555    1062.9554    119.58497    497.23223   -2601.3032 
 9663000    258.15984    -3884.348   -3441.8708    -3884.348            0    7952.0061    16.976204    19.995726    20.710929    7030.3565    9778.0703    6668.0017    7409.9464    741.81557     808.1269    683.02321   -2626.5474 
 9664000    264.15698   -3903.9814   -3451.2253   -3903.9814            0    9093.7077    16.975554     19.99496    20.710136    7029.5484    8502.2032    9212.8377    9566.0822   -175.65878   -1776.8879    236.14893   -2518.9498 
 9665000    269.19048    -3939.226   -3477.8427    -3939.226            0    6717.1089    17.029504    20.058506    20.775955     7096.784    6942.6915    6564.5147    6644.1204     921.9016    261.01999    100.68106   -2782.6266 
 9666000    258.00672   -3892.8484   -3450.6337   -3892.8484            0    6836.6588    17.053224    20.086445    20.804893    7126.4798    6452.9549    7611.2429    6445.7787    107.21813    163.45331    771.14629   -2740.0833 
 9667000    245.78442   -3900.5926   -3479.3265   -3900.5926            0    7685.0477    17.010764    20.036433    20.753092    7073.3807    7950.0237    7754.3288    7350.7906   -300.69828   -1004.0933    1804.6875   -2686.5523 
 9668000    272.59856   -3886.3296    -3419.105   -3886.3296            0    6034.7259    17.095855    20.136659    20.856903    7180.0597    6633.8164    5621.6955    5848.6659    1264.0767    -457.9647   -18.758506   -2787.1859 
 9669000    257.20639   -3871.6848   -3430.8418   -3871.6848            0    7515.2507    17.019339    20.046533    20.763554    7084.0834    7754.3249    7616.3243    7175.1029    210.10431    37.792778   -249.48249   -2654.4105 
 9670000     257.8378    -3894.096   -3452.1708    -3894.096            0     8838.698    17.068562    20.104511    20.823606    7145.7264    10016.052    7765.2506    8734.7912   -1053.9947    70.815163   -372.82544   -2531.0628 
 9671000    251.75925   -3888.8674   -3457.3607   -3888.8674            0    7016.0437    17.103023    20.145102    20.865649    7189.0956    5857.9256    7060.8124    8129.3932    697.98705   -1258.5322   -1434.8974   -2721.7594 
 9672000    262.66405   -3929.5666   -3479.3694   -3929.5666            0     8338.188    17.110814    20.154279    20.875153    7198.9242    8326.6084    10074.401    6613.5542    -380.1461    4.1418982   -754.03679    -2603.952 
 9673000    254.85446   -3902.4604   -3465.6485   -3902.4604            0    7534.5727    17.092089    20.132223    20.852308    7175.3156     7548.898    5869.4384    9185.3818      448.421    683.47337    495.32969    -2677.196 
 9674000    250.52028   -3901.2508   -3471.8676   -3901.2508            0    7052.1535    17.111135    20.154657    20.875545    7199.3292    6633.3392    8356.3067    6166.8148    194.40293    898.04911    803.88218    -2731.428 
 9675000     261.0619   -3890.7637   -3443.3125   -3890.7637            0    7935.9715    17.039188    20.069913     20.78777    7108.8981    6107.1479     9868.722    7832.0445    466.73818     898.8284    -2900.052   -2620.5429 
 9676000    251.80336   -3895.2983   -3463.7159   -3895.2983            0    8826.8511    16.941526     19.95488    20.668622    6987.3607    9360.9147    7682.0295    9437.6091   -559.62064     615.4137    757.78797    -2564.229 
 9677000    259.39116     -3848.13   -3403.5424     -3848.13            0    7371.5536    17.022645    20.050427    20.767587    7088.2123    7521.0236    6019.0435    8574.5938    494.52831    385.29889   -170.41048   -2641.5132 
 9678000    258.14499    -3875.481   -3433.0293    -3875.481            0    6634.7386    17.042887     20.07427    20.792282    7113.5286    6613.3087    6492.6657    6798.2415    142.07227    536.72199   -381.10206   -2744.7182 
 9679000    250.74964   -3892.7931   -3463.0168   -3892.7931            0    6750.9989    17.039275    20.070015    20.787876    7109.0067     5850.754     6578.801    7823.4418      331.018   -29.270929   -953.38028   -2763.0896 
 9680000    254.84491    -3927.031   -3490.2356    -3927.031            0    6413.8047     17.07108    20.107478    20.826678    7148.8898    5876.7772     5722.142    7642.4948   -581.53248    254.42266    905.99143   -2821.5373 
 9681000    263.25826   -3911.7026   -3460.4869   -3911.7026            0      8721.17    16.967302    19.985241    20.700069     7019.303    10096.459    7963.0909    8103.9604    485.44726    1401.8591    636.59144   -2567.7065 
 9682000    263.26898    -3874.871    -3423.637    -3874.871            0    8538.0273    16.975839    19.995296    20.710484    7029.9034    8069.3672    7874.9429    9669.7717    2135.5336    969.51237   -239.12992   -2548.2849 
 9683000    240.52136    -3906.372   -3494.1266    -3906.372            0    8266.9036    16.985877    20.007119     20.72273    7042.3803    6336.2203    9941.1152    8523.3754    1669.3469   -1873.2458   -582.79792   -2645.0669 
 9684000    255.09266   -3911.0069   -3473.7868   -3911.0069            0    6752.2685    16.994369    20.017122    20.733091    7052.9489    7350.3918    6956.8536    5949.5602    -40.32448   -1296.5943    1459.0667   -2779.2483 
 9685000    260.08426   -3883.7648   -3437.9893   -3883.7648            0    6616.7947    17.043704    20.075232    20.793279    7114.5514     7170.283    7516.7963    5163.3049    155.98697   -19.883241    504.02389    -2751.441 
 9686000    260.04888   -3880.8973   -3435.1824   -3880.8973            0    6348.2596    17.081477    20.119724    20.839362    7161.9595    6703.4139     6821.436    5519.9289    666.01665    86.350952   -232.74871   -2772.1077 
 9687000    245.92844   -3896.8605   -3475.3476   -3896.8605            0    7029.6146    17.054327    20.087744    20.806239    7127.8627    7212.4839    5861.3296    8015.0302   -749.56329   -288.94406   -1039.8574   -2744.6011 
 9688000    272.04562   -3879.7722   -3413.4953   -3879.7722            0    7570.8954    17.065752    20.101201    20.820177    7142.1977     7613.936    7383.2012    7715.5491   -190.21864    773.61679    530.10917   -2624.8985 
 9689000    239.85404   -3876.9427   -3465.8411   -3876.9427            0    7880.9786     17.03805    20.068572    20.786381    7107.4735    8769.1597    6067.1172    8806.6588   -583.01574    40.287966   -555.84314   -2648.9366 
 9690000    270.57265   -3883.2123     -3419.46   -3883.2123            0    6845.1961    17.076457    20.113811    20.833238    7155.6469    6091.8309     6099.284    8344.4733   -554.91363      833.354     421.9127   -2705.1106 
 9691000    255.24816   -3871.8845   -3434.3979   -3871.8845            0    8608.8556    17.016082    20.042697     20.75958    7080.0169    8953.5055    9384.7522    7488.3091    928.94237    1886.8135   -536.91598   -2545.4924 
 9692000    251.84599   -3885.8014    -3454.146   -3885.8014            0    8067.8926    17.080711    20.118821    20.838427    7160.9955    7532.2962    6763.4606    9907.9211   -1260.1594   -378.02214   -353.22707   -2611.5694 
 9693000    259.52552   -3891.0559    -3446.238   -3891.0559            0    7876.0887    17.014273    20.040566    20.757373    7077.7587    7880.4039    7082.4624    8665.3997    2195.1673   -1135.9771    166.50135   -2633.2536 
 9694000     261.7516   -3870.6601   -3422.0268   -3870.6601            0    7610.5645    17.019061    20.046206    20.763215    7083.7361    7473.4598    7523.6588     7834.575    99.171793     948.6417   -237.13007   -2635.7868 
 9695000    256.30648   -3879.9646    -3440.664   -3879.9646            0    7943.9448    16.991182    20.013368    20.729202    7048.9811    8303.9271    8386.3872    7141.5201    -522.0789    2564.0018    1184.2152   -2624.0094 
 9696000    252.26669   -3871.8909   -3439.5144   -3871.8909            0    6586.9737    17.046603    20.078647    20.796816    7118.1832    7754.7701      6750.36    5255.7909     1357.808   -351.26556   -670.01156   -2755.7114 
 9697000    257.50654   -3895.5201   -3454.1627   -3895.5201            0    5702.0618    17.071189    20.107606    20.826811    7149.0268      3900.86    7547.0385     5658.287   -377.04269   -1885.0659   -65.046935   -2859.6587 
 9698000    257.31082    -3887.837   -3446.8151    -3887.837            0     6593.324    17.058078    20.092163    20.810816    7132.5679    7829.5593    4815.8583    7134.5543    413.06189    1183.3294   -582.89855   -2760.9697 
 9699000    272.86752   -3903.2214   -3435.5358   -3903.2214            0    8141.3116    17.011792    20.037644    20.754346    7074.6633    7112.1378    7935.5125    9376.2846   -447.25858   -117.09656    774.57109   -2595.5421 
 9700000    262.16045   -3892.9869   -3443.6529   -3892.9869            0    8353.5097    16.982093    20.002662    20.718114    7037.6755    8464.0167    6256.0853    10340.427   -799.62271    -450.3304    108.30199   -2586.2714 
 9701000    270.06571   -3904.6345   -3441.7511   -3904.6345            0     7747.821    16.961721    19.978666     20.69326    7012.3778    8899.2468    7415.0395    6929.1766    1090.7934    1357.7223    457.47212   -2649.3943 
 9702000    253.62254   -3856.1319   -3421.4315   -3856.1319            0    7543.9733    16.943203    19.956856    20.670669    6989.4365    4477.2129    9477.7065    8677.0004   -82.284625    591.74073   -518.77899    -2652.446 
 9703000    240.41517   -3892.3211   -3480.2578   -3892.3211            0    9071.6598    16.930687    19.942113    20.655398    6973.9579    11065.839    8023.2028    8125.9381   -1553.8117     38.20717    1532.5849   -2557.5972 
 9704000    253.10535   -3911.6385   -3477.8246   -3911.6385            0    5687.1324    17.064715     20.09998    20.818912    7140.8955    7102.8523    7406.6942    2551.8506     710.2064   -579.47849    1344.7475   -2885.5516 
 9705000    246.77627   -3892.4554   -3469.4893   -3892.4554            0    7100.3897    16.980111    20.000328    20.715696    7035.2121    9753.9417    4313.9238    7233.3035    31.608202    -27.30397     35.13043   -2740.9797 
 9706000    254.38484   -3889.5656   -3453.5587   -3889.5656            0    7823.6824    16.959846    19.976458    20.690972    7010.0529    6422.6356    7930.5309    9117.8806   -928.61888    -482.1272   -1098.7199    -2653.709 
 9707000    253.37489   -3891.9825   -3457.7066   -3891.9825            0    5975.9676    17.008527    20.033798    20.750363    7070.5909     6780.597    6199.5178     4947.788   -286.93263    1815.9672   -1035.8202   -2841.4809 
 9708000    253.10467   -3878.9371   -3445.1244   -3878.9371            0     7550.161    16.955256    19.971052    20.685373    7004.3632     8042.563    4582.9067    10025.013    723.54856   -926.00397     1841.191   -2673.8645 
 9709000     263.9728   -3911.1166   -3458.6763   -3911.1166            0    7338.5302    16.969981    19.988397    20.703338    7022.6285    7517.6937     8502.378    5995.5189    747.91796    373.61873    1001.2612   -2707.0799 
 9710000    262.83116    -3873.731   -3423.2474    -3873.731            0    7643.4626    16.959776    19.976376    20.690887    7009.9662    7995.2922    7328.1192    7606.9764   -1487.4549   -455.59055   -154.16509    -2641.832 
 9711000    258.94269   -3904.6722   -3460.8532   -3904.6722            0    7549.2225    16.980449    20.000726    20.716108    7035.6316    6673.9291    6639.4921    9334.2462    181.15414    989.97212   -1094.8937   -2686.2466 
 9712000    255.90514    -3894.686   -3456.0734    -3894.686            0    7587.2536    16.989376     20.01124    20.726999    7046.7334    8288.2286    6009.4932    8464.0391   -2670.1489    317.48845    10.078456    -2676.336 
 9713000    255.61391    -3848.489   -3410.3755    -3848.489            0    8798.8323     17.01972    20.046981    20.764018    7084.5584    9129.9011    9116.1835    8150.4124    316.21713    298.88247    1945.9857   -2501.2712 
 9714000     248.2786    -3885.363    -3459.822    -3885.363            0    6665.8618     17.05288     20.08604    20.804474    7126.0489    6054.7762    6528.4086    7414.4006    771.98664   -864.93497    1463.8846   -2767.0649 
 9715000    245.68457   -3915.5113   -3494.4163   -3915.5113            0    7943.7662    16.967322    19.985264    20.700093    7019.3271    8048.8908     8497.222    7285.1857    616.05763    1080.9098   -437.04906   -2681.2155 
 9716000     256.8566   -3893.6061   -3453.3627   -3893.6061            0    6888.1153    17.022467    20.050218     20.76737    7087.9899    7143.0228    7953.0912    5568.2318   -1645.7522   -1724.8041    824.72426   -2741.3309 
 9717000    246.72791   -3887.1262    -3464.243   -3887.1262            0    9315.9476    16.973487    19.992525    20.707614    7026.9808     11409.89    7401.1623    9136.7906   -464.65387   -924.60088   -41.688234   -2509.5325 
 9718000    256.58605   -3890.1483   -3450.3686   -3890.1483            0    8142.7262    17.029925    20.059002    20.776469    7097.3105    6586.8359    7614.1946    10227.148    399.83578    161.65784    2149.4789   -2607.5395 
 9719000    260.09859   -3886.5545   -3440.7544   -3886.5545            0    7052.4043    17.082788    20.121268    20.840961    7163.6083    7766.1846    5357.5931    8033.4351   -1478.2262   -323.20258    599.32803   -2703.9623 
 9720000    242.67906   -3893.7778   -3477.8342   -3893.7778            0    8841.6613    16.977343    19.997068    20.712319    7031.7721    9431.7693    7791.0346    9302.1798    1463.5989     1032.689    669.36459   -2571.1114 
 9721000    252.70058   -3905.1564   -3472.0362   -3905.1564            0     7973.235    17.044673    20.076374    20.794461    7115.7655     6688.373    8517.5927    8713.7392    1277.6964    431.08125    783.01749   -2644.6047 
 9722000    253.59492   -3913.4847   -3478.8317   -3913.4847            0    8477.5247    17.027856    20.056565    20.773944    7094.7236     7715.718    9281.9633    8434.8928   -997.38658    846.26002   -1391.8919   -2601.6685 
 9723000    243.64794   -3886.8909   -3469.2866   -3886.8909            0    8879.4482    17.076644    20.114031    20.833466    7155.8816    8897.3443    8185.6611    9555.3392    594.89282    1527.8784   -493.38251   -2542.6168 
 9724000    268.07026   -3907.2758   -3447.8125   -3907.2758            0    9444.2133    16.995649     20.01863    20.734652    7054.5424    8806.4415    10126.709    9399.4897    847.50909   -1160.8936    352.41385    -2476.161 
 9725000    248.05979   -3891.3193   -3466.1533   -3891.3193            0    8308.6833    17.002797    20.027049    20.743373    7063.4472    8426.4805    7301.1142    9198.4553     718.0787    -1945.856   -833.97799   -2610.2498 
 9726000    266.38957   -3911.7812   -3455.1986   -3911.7812            0    8902.0902    17.003497    20.027874    20.744227    7064.3201    7258.5788    10089.037    9358.6545   -426.21293   -1590.9407    479.53548    -2538.053 
 9727000     272.8784   -3861.1755   -3393.4713   -3861.1755            0    7263.6805    17.084155    20.122877    20.842629    7165.3279    7658.9947    7738.0889     6393.958   -654.43668   -218.85994   -121.87464   -2634.4242 
 9728000     257.3937   -3843.0686   -3401.9046   -3843.0686            0    9613.6301    16.978888    19.998887    20.714204    7033.6914    10145.492    8067.4121    10627.986   -559.21136   -1063.4082    1968.9822   -2415.7464 
 9729000    255.24234    -3837.033   -3399.5564    -3837.033            0    9136.0665    16.951086     19.96614    20.680285     6999.196    7864.5917    9110.2066    10433.401     401.2901   -565.45817    359.22548   -2466.9824 
 9730000    262.38705   -3861.6547   -3411.9322   -3861.6547            0    6002.5846    17.079512    20.117409    20.836964    7159.4875     3344.848    7797.7669     6865.139   -256.18165    1384.9072   -598.03959   -2785.1797 
 9731000    254.53767    -3835.551   -3399.2822    -3835.551            0    7413.8156    16.946091    19.960257    20.674192    6993.0113    8342.8881    6316.0268    7582.5318    616.85063    947.13674   -1086.7725   -2643.1775 
 9732000    254.68317   -3857.0482     -3420.53   -3857.0482            0    8130.1077    17.015588    20.042115    20.758978    7079.4005    8815.8716    8029.5787    7544.8729    1099.5322   -1819.7056   -1294.8986   -2581.1305 
 9733000    258.05215   -3883.4265    -3441.134   -3883.4265            0    8475.8989    17.009854    20.035362    20.751983    7072.2464    7939.8353    8767.6632    8720.1982    56.783451   -391.54531   -738.98072   -2566.9174 
 9734000    261.02068   -3861.7229   -3414.3424   -3861.7229            0    9323.4223    16.999522    20.023192    20.739377    7059.3667    8465.1993    8717.4269    10787.641   -268.18472    340.31947    72.636558   -2454.4623 
 9735000    250.54132   -3879.2759   -3449.8566   -3879.2759            0    7206.9279    16.970269    19.988735    20.703688    7022.9853     5550.721    7380.1455    8689.9172   -1388.1577   -992.83086    473.07155   -2711.7012 
 9736000    264.09348   -3895.0723   -3442.4252   -3895.0723            0    8955.7277    16.957218    19.973362    20.687766    7006.7943    7188.4828    9163.5175    10515.183    24.448256   -1018.0963    701.85774    -2527.267 
 9737000    237.91064   -3869.7214   -3461.9507   -3869.7214            0    7681.4116    17.015291    20.041766    20.758616    7079.0302    7025.5342    8945.9894    7072.7111    1194.8923    441.16798   -521.68593   -2668.9187 
 9738000    260.40471   -3872.4615   -3426.1367   -3872.4615            0    7212.7102    17.016381    20.043049    20.759945    7080.3902    6951.3973    6922.9446    7763.7885   -601.92093    1716.7798    821.14523   -2681.3506 
 9739000    257.61335   -3867.0356   -3425.4951   -3867.0356            0    7174.7013    17.040888    20.071915    20.789843    7111.0256    6557.8716    7644.0376    7322.1946    322.44504    922.31737    622.92059   -2681.4283 
 9740000     258.3075   -3851.8339   -3409.1037   -3851.8339            0    7321.1984    17.089679    20.129384    20.849368    7172.2811    8827.0928    7756.6442    5379.8582    1009.2495   -1605.8845   -27.452747   -2643.3037 
 9741000    249.66637   -3875.5155   -3447.5959   -3875.5155            0    7181.0232    17.006094    20.030932    20.747395    7067.5566    5662.6256     5359.548    10520.896   -1244.4586    811.52755    681.37506   -2707.4258 
 9742000    258.09099   -3856.7477   -3414.3886   -3856.7477            0     6874.928    17.106577    20.149289    20.869984    7193.5782    5378.1965    8283.6966    6962.8907    1710.1761   -279.35999   -259.03535   -2693.1333 
 9743000    268.76666   -3892.4627   -3431.8059   -3892.4627            0    7296.0096    17.103794     20.14601    20.866589    7190.0678    7698.8216     6838.829    7350.3781   -1286.0778    -99.81324    1209.3167    -2666.748 
 9744000    256.48877   -3850.2771   -3410.6641   -3850.2771            0    9886.9828    16.998217    20.021654    20.737785    7057.7402     10565.93    8807.8912    10287.128    107.87143    795.26502    557.81953    -2392.998 
 9745000    279.31577   -3862.8442   -3384.1065   -3862.8442            0    6941.6632    16.994436      20.0172    20.733172    7053.0315    7576.6829    7018.1396    6230.1673    1583.7264   -121.30637     685.8708   -2670.0785 
 9746000    252.78813    -3893.489   -3460.2188    -3893.489            0    5931.8442    17.075543    20.112734    20.832123     7154.498    6270.9013    4496.8022    7027.8291    -415.1983   -1091.6193    585.71227   -2841.2841 
 9747000    250.14019   -3865.7552   -3437.0235   -3865.7552            0    5853.6426    17.099736    20.141231    20.861639    7184.9515    6288.1979      4790.54    6482.1899   -213.63287    740.51535    838.71037   -2823.6487 
 9748000    260.86389   -3860.1958    -3413.084   -3860.1958            0    7356.3338    17.065053    20.100378    20.819324    7141.3197    7594.6356    7082.1083    7392.2574   -638.22359    1459.5324     158.4863   -2646.9305 
 9749000    252.47456   -3881.7341   -3449.0013   -3881.7341            0    7495.1658    16.964559    19.982009    20.696722    7015.8981    7934.9437    8500.7275    6049.8261   -1823.1006    950.72136    648.17517   -2682.0984 
 9750000    261.38653   -3854.4706    -3406.463   -3854.4706            0    6925.7298    17.051562    20.084488    20.802866    7124.3969    7406.5764    8387.1584    4983.4547    224.62086   -875.53596   -699.33327   -2686.8657 
Loop time of 469.926 on 64 procs for 250000 steps with 864 atoms

Performance: 91.929 ns/day, 0.261 hours/ns, 531.999 timesteps/s
191.3% CPU use with 32 MPI tasks x 2 OpenMP threads

MPI task timing breakdown:
Section |  min time  |  avg time  |  max time  |%varavg| %total
---------------------------------------------------------------
Pair    | 26.565     | 33.994     | 40.918     |  58.1 |  7.23
Bond    | 0.72761    | 0.98719    | 1.569      |  18.5 |  0.21
Kspace  | 211.94     | 221.4      | 231.43     |  37.7 | 47.11
Neigh   | 4.4899     | 5.2641     | 5.7517     |  21.2 |  1.12
Comm    | 88.446     | 97.838     | 108.41     |  52.0 | 20.82
Output  | 0.51373    | 0.51413    | 0.51617    |   0.1 |  0.11
Modify  | 87.253     | 90.861     | 96.935     |  29.0 | 19.34
Other   |            | 19.07      |            |       |  4.06

Nlocal:        27.0000 ave          35 max          22 min
Histogram: 4 4 4 6 5 3 4 0 0 2
Nghost:        2585.78 ave        2613 max        2554 min
Histogram: 1 0 3 2 7 6 7 3 1 2
Neighs:        8656.91 ave       11377 max        6842 min
Histogram: 2 6 5 8 2 0 2 5 0 2

Total # of neighbors = 277021
Ave neighs/atom = 320.62616
Ave special neighs/atom = 2.0000000
Neighbor list builds = 13618
Dangerous builds = 1

unfix		3
unfix		2
unfix		1

write_data	data.final.${pid}
write_data	data.final.1
System init for write_data ...
PPPM initialization ...
  extracting TIP4P info from pair style
  using 12-bit tables for long-range coulomb (../kspace.cpp:340)
  G vector (1/distance) = 0.37389004
  grid = 24 24 24
  stencil order = 5
  estimated absolute RMS force accuracy = 0.003203657
  estimated relative force accuracy = 9.6477179e-06
  using double precision FFTW3
  3d grid and FFT values/proc = 3549 432
Last active /omp style is kspace_style pppm/tip4p/omp
WARNING: Not all mixed pair coeffs generated from mixing. Use write_data with 'pair ij' option to store all pair coeffs. (../write_data.cpp:312)

write_restart   restart.lmp.${pid}
write_restart   restart.lmp.1
System init for write_restart ...
PPPM initialization ...
  extracting TIP4P info from pair style
  using 12-bit tables for long-range coulomb (../kspace.cpp:340)
  G vector (1/distance) = 0.37389004
  grid = 24 24 24
  stencil order = 5
  estimated absolute RMS force accuracy = 0.003203657
  estimated relative force accuracy = 9.6477179e-06
  using double precision FFTW3
  3d grid and FFT values/proc = 3549 432
Last active /omp style is kspace_style pppm/tip4p/omp
Total wall time: 0:07:50
